
#(C) 2017 by FIZ Karlsruhe - Leibniz Institute for Information Infrastructure.  All rights reserved.
data_71912-ICSD
_database_code_ICSD 71912
_audit_creation_date 1993-08-22
_audit_update_record 2016-02-01
_chemical_name_systematic 'Tungsten oxide (1/1.1)'
_chemical_formula_structural 'W O1.09'
_chemical_formula_sum 'O1.09 W1'
_exptl_crystal_density_diffrn 21.97
_publ_section_title
'High-pressure phases in the system W-O. I.Structure of WO1.09 by HRTEM'
loop_
_citation_id
_citation_journal_full
_citation_year
_citation_journal_volume
_citation_page_first
_citation_page_last
_citation_journal_id_ASTM
primary 'Acta Crystallographica, Section B: Structural Science' 1992 48 572 577
ASBSDK
loop_
_publ_author_name
'Barabanenkov, Yu.A.'
'Zakharov, N.D.'
'Zibrov, I.P.'
'Filonenko, V.P.'
'Werner, P.'
_cell_length_a 17.16
_cell_length_b 5.16
_cell_length_c 3.78
_cell_angle_alpha 90.
_cell_angle_beta 90.
_cell_angle_gamma 90.
_cell_volume 334.7
_cell_formula_units_Z 22
_symmetry_space_group_name_H-M 'C m m 2'
_symmetry_Int_Tables_number 35
_refine_ls_R_factor_all 0.145
loop_
_symmetry_equiv_pos_site_id
_symmetry_equiv_pos_as_xyz
1 'x, -y, z'
2 '-x, y, z'
3 '-x, -y, z'
4 'x, y, z'
5 'x+1/2, -y+1/2, z'
6 '-x+1/2, y+1/2, z'
7 '-x+1/2, -y+1/2, z'
8 'x+1/2, y+1/2, z'
loop_
_atom_type_symbol
_atom_type_oxidation_number
W2+ 2.182
O2- -2
loop_
_atom_site_label
_atom_site_type_symbol
_atom_site_symmetry_multiplicity
_atom_site_Wyckoff_symbol
_atom_site_fract_x
_atom_site_fract_y
_atom_site_fract_z
_atom_site_B_iso_or_equiv
_atom_site_occupancy
_atom_site_attached_hydrogens
W1 W2+ 4 d 0.772 0 0.25 . 1. 0
W2 W2+ 4 d 0.852 0 0 . 1. 0
W3 W2+ 4 d 0.805 0.5 0 . 1. 0
W4 W2+ 8 f 0.906 0.246 0.5 . 1. 0
W5 W2+ 2 a 0 0 0 . 1. 0
O1 O2- 4 d 0.833 0 0.5 . 1. 0
O2 O2- 2 a 0 0 0.5 . 1. 0
O3 O2- 4 c 0.75 0.25 0 . 1. 0
O4 O2- 8 f 0.917 0.25 0 . 1. 0
O5 O2- 4 d 0.833 0.5 0.5 . 1. 0
O6 O2- 2 b 0 0.5 0.5 . 1. 0
#End of TTdata_71912-ICSD