
#(C) 2018 by FIZ Karlsruhe - Leibniz Institute for Information Infrastructure.  All rights reserved.
data_23843-ICSD
_database_code_ICSD 23843
_audit_creation_date 1986-10-22
_audit_update_record 2000-12-16
_chemical_name_systematic 'Tetraphosphorus decasulfide'
_chemical_formula_structural 'P4 S10'
_chemical_formula_sum 'P4 S10'
_chemical_name_structure_type P4S10
_exptl_crystal_density_diffrn 2.09
_publ_section_title
'Refinement of the crystal structures of some phosphorus sulphides'
loop_
_citation_id
_citation_journal_full
_citation_year
_citation_journal_volume
_citation_page_first
_citation_page_last
_citation_journal_id_ASTM
primary 'Acta Crystallographica' 1965 19 864 867 ACCRA9
loop_
_publ_author_name
'Vos, A.'
'Olthof, R.'
'van Bolhuis, F.'
'Botterweg, R.'
_cell_length_a 9.072(3)
_cell_length_b 9.199(3)
_cell_length_c 9.236(3)
_cell_angle_alpha 92.58(7)
_cell_angle_beta 100.9(1)
_cell_angle_gamma 110.18(7)
_cell_volume 705.31
_cell_formula_units_Z 2
_symmetry_space_group_name_H-M 'P -1'
_symmetry_Int_Tables_number 2
_refine_ls_R_factor_all 0.087
loop_
_symmetry_equiv_pos_site_id
_symmetry_equiv_pos_as_xyz
1 '-x, -y, -z'
2 'x, y, z'
loop_
_atom_type_symbol
_atom_type_oxidation_number
P5+ 5
S2- -2
loop_
_atom_site_label
_atom_site_type_symbol
_atom_site_symmetry_multiplicity
_atom_site_Wyckoff_symbol
_atom_site_fract_x
_atom_site_fract_y
_atom_site_fract_z
_atom_site_B_iso_or_equiv
_atom_site_occupancy
_atom_site_attached_hydrogens
P1 P5+ 2 i 0.2569 0.0859 -.1881 2.42(7) 1. 0
P2 P5+ 2 i -.0924 0.1616 -.2855 2.37(7) 1. 0
P3 P5+ 2 i 0.2698 0.4391 -.2984 2.09(7) 1. 0
P4 P5+ 2 i 0.1801 0.3482 0.0373 2.41(7) 1. 0
S1 S2- 2 i 0.3449 -.0724 -.1933 4.09(7) 1. 0
S2 S2- 2 i 0.0094 -.0134 -.2882 3.22(7) 1. 0
S3 S2- 2 i 0.3699 0.2687 -.3032 2.69(7) 1. 0
S4 S2- 2 i 0.2861 0.176 0.0327 2.06(7) 1. 0
S5 S2- 2 i -.3163 0.0671 -.3735 4.05(7) 1. 0
S6 S2- 2 i 0.0278 0.341 -.4027 2.66(7) 1. 0
S7 S2- 2 i -.0655 0.2471 -.0656 2.53(7) 1. 0
S8 S2- 2 i 0.3703 0.6055 -.4057 3.15(7) 1. 0
S9 S2- 2 i 0.292 0.5279 -.0805 2.63(7) 1. 0
S10 S2- 2 i 0.2064 0.4281 0.2388 3.25(7) 1. 0
#End of TTdata_23843-ICSD