#------------------------------------------------------------------------------
#$Date: 2015-01-27 21:58:39 +0200 (Tue, 27 Jan 2015) $
#$Revision: 130149 $
#$URL: svn://www.crystallography.net/cod/cif/4/00/06/4000657.cif $
#------------------------------------------------------------------------------
#
# This file is available in the Crystallography Open Database (COD),
# http://www.crystallography.net/
#
# All data on this site have been placed in the public domain by the
# contributors.
#
data_4000657
_journal_name_full               'Chemistry of Materials'
_journal_paper_doi               10.1021/cm0518067
_journal_year                    2005
_chemical_formula_sum            'Cd Ge Te4 Tl2'
_chemical_formula_weight         1104.13
_chemical_name_common            'Thallium Cadmium Germanium Telluride'
_space_group_IT_number           121
_symmetry_cell_setting           tetragonal
_symmetry_space_group_name_Hall  'I -4 2'
_symmetry_space_group_name_H-M   'I -4 2 m'
_cell_angle_alpha                90.00
_cell_angle_beta                 90.00
_cell_angle_gamma                90.00
_cell_formula_units_Z            2
_cell_length_a                   8.3825(19)
_cell_length_b                   8.3825(19)
_cell_length_c                   7.0775(18)
_cell_measurement_temperature    175(5)
_cell_volume                     497.3(2)
_diffrn_ambient_temperature      175(5)
_exptl_crystal_density_diffrn    7.373
_cod_depositor_comments
;
The following automatic conversions were performed:
'_symmetry_cell_setting' value 'Tetragonal' changed to 'tetragonal'
according to '/home/saulius/struct/CIF-dictionaries/cif_core.dic'
dictionary named 'cif_core.dic' version 2.4.1 from 2010-06-29.

Automatic conversion script
Id: cif_fix_enum 1527 2010-12-29 10:47:43Z saulius 
;
_cod_database_code               4000657
loop_
_symmetry_equiv_pos_as_xyz
'x, y, z'
'-x, -y, z'
'y, -x, -z'
'-y, x, -z'
'-x, y, -z'
'x, -y, -z'
'-y, -x, z'
'y, x, z'
'x+1/2, y+1/2, z+1/2'
'-x+1/2, -y+1/2, z+1/2'
'y+1/2, -x+1/2, -z+1/2'
'-y+1/2, x+1/2, -z+1/2'
'-x+1/2, y+1/2, -z+1/2'
'x+1/2, -y+1/2, -z+1/2'
'-y+1/2, -x+1/2, z+1/2'
'y+1/2, x+1/2, z+1/2'
loop_
_atom_site_label
_atom_site_type_symbol
_atom_site_fract_x
_atom_site_fract_y
_atom_site_fract_z
_atom_site_U_iso_or_equiv
_atom_site_adp_type
_atom_site_occupancy
_atom_site_symmetry_multiplicity
_atom_site_calc_flag
_atom_site_refinement_flags
_atom_site_disorder_assembly
_atom_site_disorder_group
Tl1 Tl 0.0000 0.5000 0.0000 0.01934(15) Uani 1 4 d S . .
Cd1 Cd 0.0000 0.0000 0.5000 0.0145(3) Uani 1 8 d S . .
Ge1 Ge 0.0000 0.0000 0.0000 0.0085(4) Uani 1 8 d S . .
Te1 Te 0.17494(5) 0.17494(5) -0.22522(8) 0.00964(14) Uani 1 2 d S . .
loop_
_atom_site_aniso_label
_atom_site_aniso_U_11
_atom_site_aniso_U_22
_atom_site_aniso_U_33
_atom_site_aniso_U_23
_atom_site_aniso_U_13
_atom_site_aniso_U_12
Tl1 0.0251(4) 0.0155(3) 0.0175(3) 0.000 0.000 0.000
Cd1 0.0177(5) 0.0177(5) 0.0080(5) 0.000 0.000 0.000
Ge1 0.0096(6) 0.0096(6) 0.0063(8) 0.000 0.000 0.000
Te1 0.00970(18) 0.00970(18) 0.0095(2) 0.00083(15) 0.00083(15) -0.0004(2)
loop_
_geom_bond_atom_site_label_1
_geom_bond_atom_site_label_2
_geom_bond_distance
_geom_bond_site_symmetry_2
_geom_bond_publ_flag
Tl1 Te1 3.4808(7) 3_565 ?
Tl1 Te1 3.4808(7) . ?
Tl1 Te1 3.4808(7) 4 ?
Tl1 Te1 3.4808(7) 2_565 ?
Tl1 Tl1 3.5388(9) 11_455 ?
Tl1 Tl1 3.5388(9) 11_454 ?
Tl1 Te1 3.6548(7) 11_454 ?
Tl1 Te1 3.6548(7) 10 ?
Tl1 Te1 3.6548(7) 12_554 ?
Tl1 Te1 3.6548(7) 9_455 ?
Tl1 Cd1 4.1912(10) 9_454 ?
Tl1 Ge1 4.1912(10) 1_565 ?
Cd1 Te1 2.8430(7) 1_556 ?
Cd1 Te1 2.8430(7) 4 ?
Cd1 Te1 2.8430(7) 3 ?
Cd1 Te1 2.8430(7) 2_556 ?
Cd1 Tl1 4.1912(10) 9_545 ?
Cd1 Tl1 4.1912(10) 9_445 ?
Cd1 Tl1 4.1912(10) 11_455 ?
Cd1 Tl1 4.1912(10) 11_445 ?
Ge1 Te1 2.6156(7) 2 ?
Ge1 Te1 2.6156(7) . ?
Ge1 Te1 2.6156(7) 4 ?
Ge1 Te1 2.6156(7) 3 ?
Ge1 Tl1 4.1912(10) 1_545 ?
Ge1 Tl1 4.1912(10) 3 ?
Ge1 Tl1 4.1912(10) 3_455 ?
Te1 Cd1 2.8430(7) 1_554 ?
Te1 Tl1 3.4808(7) 3 ?
Te1 Tl1 3.6548(7) 9_544 ?
Te1 Tl1 3.6548(7) 11_454 ?
