
#(C) 2018 by FIZ Karlsruhe - Leibniz Institute for Information Infrastructure.  All rights reserved.
data_105521-ICSD
_database_code_ICSD 105521
_audit_creation_date 2004-10-01
_audit_update_record 2013-02-01
_chemical_name_systematic 'Aluminium molybdenum (5/1) - HT'
_chemical_formula_structural 'Al5 Mo'
_chemical_formula_sum 'Al5 Mo1'
_chemical_name_structure_type Al5W
_exptl_crystal_density_diffrn 4.14
_publ_section_title
'The Al - Al8 Mo3 section of the binary system aluminum- molybdenum'
loop_
_citation_id
_citation_journal_full
_citation_year
_citation_journal_volume
_citation_page_first
_citation_page_last
_citation_journal_id_ASTM
primary
'Metallurgical Transactions A: Physical Metallurgy and Materials Science' 1991 22 1729 1738 MTTABN
loop_
_publ_author_name
'Schuster, J.C.'
'Ipser, H.'
_cell_length_a 4.912(2)
_cell_length_b 4.912
_cell_length_c 8.860(4)
_cell_angle_alpha 90.
_cell_angle_beta 90.
_cell_angle_gamma 120.
_cell_volume 185.13
_cell_formula_units_Z 2
_symmetry_space_group_name_H-M 'P 63'
_symmetry_Int_Tables_number 173
loop_
_symmetry_equiv_pos_site_id
_symmetry_equiv_pos_as_xyz
1 'x-y, x, z+1/2'
2 'y, -x+y, z+1/2'
3 '-x, -y, z+1/2'
4 '-x+y, -x, z'
5 '-y, x-y, z'
6 'x, y, z'
loop_
_atom_type_symbol
_atom_type_oxidation_number
Al0+ 0
Mo0+ 0
loop_
_atom_site_label
_atom_site_type_symbol
_atom_site_symmetry_multiplicity
_atom_site_Wyckoff_symbol
_atom_site_fract_x
_atom_site_fract_y
_atom_site_fract_z
_atom_site_B_iso_or_equiv
_atom_site_occupancy
_atom_site_attached_hydrogens
Al1 Al0+ 2 a 0 0 0 . 1. 0
Al2 Al0+ 2 b 0.3333 0.6667 0 . 1. 0
Al3 Al0+ 6 c 0.333 0.333 0.25 . 1. 0
Mo1 Mo0+ 2 b 0.3333 0.6667 0.5 . 1. 0
#End of TTdata_105521-ICSD