
#(C) 2017 by FIZ Karlsruhe - Leibniz Institute for Information Infrastructure.  All rights reserved.
data_37020-ICSD
_database_code_ICSD 37020
_audit_creation_date 1983-12-31
_audit_update_record 2014-08-01
_chemical_name_systematic 'Disulfur dibromide'
_chemical_formula_structural 'S2 Br2'
_chemical_formula_sum 'Br2 S2'
_chemical_name_structure_type Br2S2
_exptl_crystal_density_diffrn 3.1
_cell_measurement_temperature 174.
_publ_section_title
'Kristallstrukturen von Verbindungen A2 X2 (A= S,Se; X= Cl,Br)'
loop_
_citation_id
_citation_journal_full
_citation_year
_citation_journal_volume
_citation_page_first
_citation_page_last
_citation_journal_id_ASTM
primary

;
Zeitschrift fuer Naturforschung, Teil B. Anorganische Chemie, Organische
Chemie (33,1978-41,1986)
; 1983 38 1 6 ZNBAD2
loop_
_publ_author_name
'Kniep, R.'
'Korte, L.'
'Mootz, D.'
_cell_length_a 13.490(7)
_cell_length_b 6.788(4)
_cell_length_c 5.245(2)
_cell_angle_alpha 90.
_cell_angle_beta 90.
_cell_angle_gamma 90.
_cell_volume 480.29
_cell_formula_units_Z 4
_symmetry_space_group_name_H-M 'A b a 2'
_symmetry_Int_Tables_number 41
_refine_ls_R_factor_all 0.029
loop_
_symmetry_equiv_pos_site_id
_symmetry_equiv_pos_as_xyz
1 'x+1/2, -y+1/2, z'
2 '-x+1/2, y+1/2, z'
3 '-x, -y, z'
4 'x, y, z'
5 'x+1/2, -y, z+1/2'
6 '-x+1/2, y, z+1/2'
7 '-x, -y+1/2, z+1/2'
8 'x, y+1/2, z+1/2'
loop_
_atom_type_symbol
_atom_type_oxidation_number
S1+ 1
Br1- -1
loop_
_atom_site_label
_atom_site_type_symbol
_atom_site_symmetry_multiplicity
_atom_site_Wyckoff_symbol
_atom_site_fract_x
_atom_site_fract_y
_atom_site_fract_z
_atom_site_B_iso_or_equiv
_atom_site_occupancy
_atom_site_attached_hydrogens
S1 S1+ 8 b 0.04680(8) 0.1092(2) 0.2995(3) . 1. 0
Br1 Br1- 8 b 0.16186(3) 0.05667(6) 0 . 1. 0
loop_
_atom_site_aniso_label
_atom_site_aniso_type_symbol
_atom_site_aniso_B_11
_atom_site_aniso_B_22
_atom_site_aniso_B_33
_atom_site_aniso_B_12
_atom_site_aniso_B_13
_atom_site_aniso_B_23
S1 S1+ 1.19(3) 2.21(3) 2.24(3) -.02(3) -.23(2) -.69(4)
Br1 Br1- 1.24(1) 2.95(2) 2.93(2) -.24(1) 0.05(2) -.12(2)
#End of TTdata_37020-ICSD