
#(C) 2017 by FIZ Karlsruhe - Leibniz Institute for Information Infrastructure.  All rights reserved.
data_9320-ICSD
_database_code_ICSD 9320
_audit_creation_date 1980-01-01
_chemical_name_systematic 'Gadolinium chloride (2/3)'
_chemical_formula_structural 'Gd2 Cl3'
_chemical_formula_sum 'Cl3 Gd2'
_exptl_crystal_density_diffrn 5.22
_publ_section_title

;
Rare Earth Metal-Metal Halide Systems. XV. Crystal Structure of Gadolinium
Sesquichloride. A Phase with Unique Metal Chains
;
loop_
_citation_id
_citation_journal_full
_citation_year
_citation_journal_volume
_citation_page_first
_citation_page_last
_citation_journal_id_ASTM
primary 'Inorganic Chemistry' 1973 12 556 559 INOCAJ
loop_
_publ_author_name
'Lokken, D.A.'
'Corbett, J.D.'
_cell_length_a 15.237(4)
_cell_length_b 3.896(1)
_cell_length_c 10.179(3)
_cell_angle_alpha 90.
_cell_angle_beta 117.66(3)
_cell_angle_gamma 90.
_cell_volume 535.2
_cell_formula_units_Z 4
_symmetry_space_group_name_H-M 'C 1 m 1'
_symmetry_Int_Tables_number 8
_refine_ls_R_factor_all 0.053
loop_
_symmetry_equiv_pos_site_id
_symmetry_equiv_pos_as_xyz
1 'x, -y, z'
2 'x, y, z'
3 'x+1/2, -y+1/2, z'
4 'x+1/2, y+1/2, z'
loop_
_atom_type_symbol
_atom_type_oxidation_number
Gd0+ 0
Cl0+ 0
loop_
_atom_site_label
_atom_site_type_symbol
_atom_site_symmetry_multiplicity
_atom_site_Wyckoff_symbol
_atom_site_fract_x
_atom_site_fract_y
_atom_site_fract_z
_atom_site_B_iso_or_equiv
_atom_site_occupancy
_atom_site_attached_hydrogens
Gd1 Gd0+ 2 a 0 0 0 . 1. 0
Gd2 Gd0+ 2 a 0.2731(2) 0 0.7572(3) . 1. 0
Gd3 Gd0+ 2 a 0.5456(2) 0 0.3422(3) . 1. 0
Gd4 Gd0+ 2 a 0.8208(1) 0 0.1029(3) . 1. 0
Cl1 Cl0+ 2 a 0.1787(13) 0 0.9356(18) 1.23 1. 0
Cl2 Cl0+ 2 a 0.0704(9) 0 0.5625(14) 0.83 1. 0
Cl3 Cl0+ 2 a 0.4594(9) 0 0.7794(13) 0.79 1. 0
Cl4 Cl0+ 2 a 0.3599(10) 0 0.3156(15) 1.05 1. 0
Cl5 Cl0+ 2 a 0.7524(11) 0 0.5375(16) 1.26 1. 0
Cl6 Cl0+ 2 a 0.6404(10) 0 0.1697(15) 0.71 1. 0
loop_
_atom_site_aniso_label
_atom_site_aniso_type_symbol
_atom_site_aniso_B_11
_atom_site_aniso_B_22
_atom_site_aniso_B_33
_atom_site_aniso_B_12
_atom_site_aniso_B_13
_atom_site_aniso_B_23
Gd1 Gd0+ 0.45(8) 0.31(8) 1.12(9) 0 0.17(7) 0
Gd2 Gd0+ 0.42(8) 0.52(8) 1.04(9) 0 0.21(6) 0
Gd3 Gd0+ 0.50(8) 0.70(9) 0.58(8) 0 0.06(6) 0
Gd4 Gd0+ 0.45(8) 0.95(9) 0.59(8) 0 0.09(6) 0
#End of TTdata_9320-ICSD