
#(C) 2017 by FIZ Karlsruhe - Leibniz Institute for Information Infrastructure.  All rights reserved.
data_64681-ICSD
_database_code_ICSD 64681
_audit_creation_date 1997-11-10
_audit_update_record 2016-08-01
_chemical_name_systematic 'Gold telluride (1/2)'
_chemical_formula_structural 'Au Te2'
_chemical_formula_sum 'Au1 Te2'
_chemical_name_structure_type AuTe2
_chemical_name_mineral 'Calaverite, modulated structure'
_exptl_crystal_density_diffrn 9.32
_publ_section_title

;
Valence fluctuations in the incommensurately modulated structure of calaverite
Au Te2
;
loop_
_citation_id
_citation_journal_full
_citation_year
_citation_journal_volume
_citation_page_first
_citation_page_last
_citation_journal_id_ASTM
primary 'Acta Crystallographica, Section B: Structural Science' 1988 44 486 494
ASBSDK
loop_
_publ_author_name
'Schutte, W.J.'
'de Boer, J.L.'
_cell_length_a 7.1947(4)
_cell_length_b 4.4146(2)
_cell_length_c 5.0703(3)
_cell_angle_alpha 90.
_cell_angle_beta 90.038(4)
_cell_angle_gamma 90.
_cell_volume 161.04
_cell_formula_units_Z 2
_symmetry_space_group_name_H-M 'C 1 2/m 1'
_symmetry_Int_Tables_number 12
_refine_ls_R_factor_all 0.047
loop_
_symmetry_equiv_pos_site_id
_symmetry_equiv_pos_as_xyz
1 '-x, y, -z'
2 '-x, -y, -z'
3 'x, -y, z'
4 'x, y, z'
5 '-x+1/2, y+1/2, -z'
6 '-x+1/2, -y+1/2, -z'
7 'x+1/2, -y+1/2, z'
8 'x+1/2, y+1/2, z'
loop_
_atom_type_symbol
_atom_type_oxidation_number
Au0+ 0
Te0+ 0
loop_
_atom_site_label
_atom_site_type_symbol
_atom_site_symmetry_multiplicity
_atom_site_Wyckoff_symbol
_atom_site_fract_x
_atom_site_fract_y
_atom_site_fract_z
_atom_site_B_iso_or_equiv
_atom_site_occupancy
_atom_site_attached_hydrogens
Au1 Au0+ 2 a 0 0 0 . 1. 0
Te1 Te0+ 4 i 0.68935(6) 0 0.28833(8) . 1. 0
loop_
_atom_site_aniso_label
_atom_site_aniso_type_symbol
_atom_site_aniso_beta_11
_atom_site_aniso_beta_22
_atom_site_aniso_beta_33
_atom_site_aniso_beta_12
_atom_site_aniso_beta_13
_atom_site_aniso_beta_23
Au1 Au0+ 0.00381(4) 0.0150(1) 0.0096(1) 0 0.00119(4) 0
Te1 Te0+ 0.00445(6) 0.0140(2) 0.0087(1) 0 0.00069(6) 0
#End of TTdata_64681-ICSD