
#(C) 2018 by FIZ Karlsruhe - Leibniz Institute for Information Infrastructure.  All rights reserved.
data_54206-ICSD
_database_code_ICSD 54206
_audit_creation_date 2004-04-01
_audit_update_record 2012-08-01
_chemical_name_systematic 'Tantalum - beta, host'
_chemical_formula_structural Ta22
_chemical_formula_sum Ta22
_exptl_crystal_density_diffrn 11.97
_publ_section_title
'The commensurate composite sigma-structure of beta-tantalum'
loop_
_citation_id
_citation_journal_full
_citation_year
_citation_journal_volume
_citation_page_first
_citation_page_last
_citation_journal_id_ASTM
primary 'Acta Crystallographica, Section B: Structural Science' 2003 59 324 336
ASBSDK
loop_
_publ_author_name
'Arakcheeva, A.V.'
'Chapuis, G.'
'Birkedal, H.'
'Pattison, P.'
'Grinevich, V.V.'
_cell_length_a 10.201(1)
_cell_length_b 10.201(1)
_cell_length_c 5.3075(5)
_cell_angle_alpha 90.
_cell_angle_beta 90.
_cell_angle_gamma 90.
_cell_volume 552.3
_cell_formula_units_Z 1
_symmetry_space_group_name_H-M 'P -4 21 m'
_symmetry_Int_Tables_number 113
_refine_ls_R_factor_all 0.058
loop_
_symmetry_equiv_pos_site_id
_symmetry_equiv_pos_as_xyz
1 '-y+1/2, -x+1/2, z'
2 'y, -x, -z'
3 'y+1/2, x+1/2, z'
4 '-y, x, -z'
5 'x+1/2, -y+1/2, -z'
6 '-x, -y, z'
7 '-x+1/2, y+1/2, -z'
8 'x, y, z'
loop_
_atom_type_symbol
_atom_type_oxidation_number
Ta0+ 0
loop_
_atom_site_label
_atom_site_type_symbol
_atom_site_symmetry_multiplicity
_atom_site_Wyckoff_symbol
_atom_site_fract_x
_atom_site_fract_y
_atom_site_fract_z
_atom_site_B_iso_or_equiv
_atom_site_occupancy
_atom_site_attached_hydrogens
Ta1 Ta0+ 2 c 0.5 0 0.247(7) 0.0050(17) 1. 0
Ta2 Ta0+ 8 f 0.7611(3) 0.0674(4) 0.246(3) 0.0050(9) 1. 0
Ta3 Ta0+ 8 f 0.0343(3) 0.1286(3) 0.241(4) 0.0041(12) 1. 0
Ta4 Ta0+ 4 e 0.1043(4) -.6043(4) 0.246(6) 0.0046(15) 1. 0
loop_
_atom_site_aniso_label
_atom_site_aniso_type_symbol
_atom_site_aniso_U_11
_atom_site_aniso_U_22
_atom_site_aniso_U_33
_atom_site_aniso_U_12
_atom_site_aniso_U_13
_atom_site_aniso_U_23
Ta1 Ta0+ 0.0069(19) 0.0069(19) 0.001(4) 0.001(2) 0 0
Ta2 Ta0+ 0.005588 0.007159 0.002218 0.000216 -0.00034 -0.003739
Ta3 Ta0+ 0.0078(14) 0.0037(15) 0.0010(17) -0.0015(10) 0.000(5) -0.001(5)
Ta4 Ta0+ 0.0066(14) 0.0066(14) 0.001(2) -0.0002(17) 0.001(6) -0.001(6)
#End of TTdata_54206-ICSD