
#(C) 2017 by FIZ Karlsruhe - Leibniz Institute for Information Infrastructure.  All rights reserved.
data_163247-ICSD
_database_code_ICSD 163247
_audit_creation_date 2009-08-01
_chemical_name_systematic 'Manganese silicide (1/1.75)'
_chemical_formula_structural 'Mn Si1.75'
_chemical_formula_sum 'Mn1 Si1.75'
_exptl_crystal_density_diffrn 5.18
_publ_section_title

;
Modulated crystal structure of chimney-ladder higher manganese silicides Mn
Si(gamma) (gamma ca.1.74)
;
loop_
_citation_id
_citation_journal_full
_citation_year
_citation_journal_volume
_citation_page_first
_citation_page_last
_citation_journal_id_ASTM
primary 'Physical Review, Serie 3. B - Condensed Matter (18,1978-)' 2008 78
214104-1 214104-8 PRBMDO
loop_
_publ_author_name
'Miyazaki, Y.'
'Igarashi, D.'
'Hayashi, K.'
'Kajitani, T.'
'Yubuta, K.'
_cell_length_a 5.5271
_cell_length_b 5.5271
_cell_length_c 17.4672
_cell_angle_alpha 90.
_cell_angle_beta 90.
_cell_angle_gamma 90.
_cell_volume 533.6
_cell_formula_units_Z 16
_symmetry_space_group_name_H-M 'P 1 1 2'
_symmetry_Int_Tables_number 3
loop_
_symmetry_equiv_pos_site_id
_symmetry_equiv_pos_as_xyz
1 '-x, -y, z'
2 'x, y, z'
loop_
_atom_type_symbol
_atom_type_oxidation_number
Mn0+ 0
Si0+ 0
loop_
_atom_site_label
_atom_site_type_symbol
_atom_site_symmetry_multiplicity
_atom_site_Wyckoff_symbol
_atom_site_fract_x
_atom_site_fract_y
_atom_site_fract_z
_atom_site_B_iso_or_equiv
_atom_site_occupancy
_atom_site_attached_hydrogens
Mn1 Mn0+ 1 a 0 0 0 . 1. 0
Mn2 Mn0+ 1 a 0 0 0.2471 . 1. 0
Mn3 Mn0+ 1 a 0 0 0.4979 . 1. 0
Mn4 Mn0+ 1 a 0 0 0.743 . 1. 0
Mn5 Mn0+ 1 b 0.5 0 0.1943 . 1. 0
Mn6 Mn0+ 1 b 0.5 0 0.4396 . 1. 0
Mn7 Mn0+ 1 b 0.5 0 0.69 . 1. 0
Mn8 Mn0+ 1 b 0.5 0 0.9373 . 1. 0
Mn9 Mn0+ 1 c 0 0.5 0.0605 . 1. 0
Mn10 Mn0+ 1 c 0 0.5 0.305 . 1. 0
Mn11 Mn0+ 1 c 0 0.5 0.5634 . 1. 0
Mn12 Mn0+ 1 c 0 0.5 0.808 . 1. 0
Mn13 Mn0+ 1 d 0.5 0.5 0.1298 . 1. 0
Mn14 Mn0+ 1 d 0.5 0.5 0.3744 . 1. 0
Mn15 Mn0+ 1 d 0.5 0.5 0.6326 . 1. 0
Mn16 Mn0+ 1 d 0.5 0.5 0.8772 . 1. 0
Si1 Si0+ 2 e 0.3478 0.2286 0.0408 . 1. 0
Si2 Si0+ 2 e 0.1936 0.845 0.1149 . 1. 0
Si3 Si0+ 2 e 0.1606 0.3261 0.1821 . 1. 0
Si4 Si0+ 2 e 0.336 0.6685 0.2541 . 1. 0
Si5 Si0+ 2 e 0.3176 0.1574 0.3193 . 1. 0
Si6 Si0+ 2 e 0.1532 0.79 0.3887 . 1. 0
Si7 Si0+ 2 e 0.2509 0.3482 0.4682 . 1. 0
Si8 Si0+ 2 e 0.3467 0.7914 0.5474 . 1. 0
Si9 Si0+ 2 e 0.1816 0.1576 0.6165 . 1. 0
Si10 Si0+ 2 e 0.1643 0.6681 0.6845 . 1. 0
Si11 Si0+ 2 e 0.3397 0.3255 0.7537 . 1. 0
Si12 Si0+ 2 e 0.3953 0.8452 0.821 . 1. 0
Si13 Si0+ 2 e 0.1521 0.2302 0.8955 . 1. 0
Si14 Si0+ 2 e 0.2731 0.6522 0.9771 . 1. 0
#End of TTdata_163247-ICSD