
#(C) 2017 by FIZ Karlsruhe - Leibniz Institute for Information Infrastructure.  All rights reserved.
data_96620-ICSD
_database_code_ICSD 96620
_audit_creation_date 2004-04-01
_chemical_name_systematic 'Carbon (60)'
_chemical_formula_structural C60
_chemical_formula_sum C60
_exptl_crystal_density_diffrn 1.94
_publ_section_title
'Single-crystal X-ray structural refinement of the "tetragonal" C60 polymer'
loop_
_citation_id
_citation_journal_full
_citation_year
_citation_journal_volume
_citation_page_first
_citation_page_last
_citation_journal_id_ASTM
primary 'Chemical Physics Letters' 2002 360 501 508 CHPLBC
loop_
_publ_author_name
'Chen, X.'
'Yamanaka, S.'
_cell_length_a 9.026(2)
_cell_length_b 9.083(2)
_cell_length_c 15.077(3)
_cell_angle_alpha 90
_cell_angle_beta 90
_cell_angle_gamma 90
_cell_volume 1236.06
_cell_formula_units_Z 2
_symmetry_space_group_name_H-M 'I m m m'
_symmetry_Int_Tables_number 71
_refine_ls_R_factor_all 0.0731
loop_
_symmetry_equiv_pos_site_id
_symmetry_equiv_pos_as_xyz
1 'x, y, -z'
2 'x, -y, z'
3 '-x, y, z'
4 '-x, -y, -z'
5 '-x, -y, z'
6 '-x, y, -z'
7 'x, -y, -z'
8 'x, y, z'
9 'x+1/2, y+1/2, -z+1/2'
10 'x+1/2, -y+1/2, z+1/2'
11 '-x+1/2, y+1/2, z+1/2'
12 '-x+1/2, -y+1/2, -z+1/2'
13 '-x+1/2, -y+1/2, z+1/2'
14 '-x+1/2, y+1/2, -z+1/2'
15 'x+1/2, -y+1/2, -z+1/2'
16 'x+1/2, y+1/2, z+1/2'
loop_
_atom_type_symbol
_atom_type_oxidation_number
C0+ 0
loop_
_atom_site_label
_atom_site_type_symbol
_atom_site_symmetry_multiplicity
_atom_site_Wyckoff_symbol
_atom_site_fract_x
_atom_site_fract_y
_atom_site_fract_z
_atom_site_B_iso_or_equiv
_atom_site_occupancy
_atom_site_attached_hydrogens
C1 C0+ 16 o 0.0807(3) 0.2530(3) 0.1698(2) 0.0371(7) 1. 0
C2 C0+ 16 o 0.1308(3) 0.3352(3) 0.0958(2) 0.0363(7) 1. 0
C3 C0+ 16 o 0.1573(3) 0.1284(3) 0.1973(2) 0.0377(7) 1. 0
C4 C0+ 16 o 0.2518(3) 0.2855(3) 0.0483(2) 0.0374(7) 1. 0
C5 C0+ 16 o 0.2866(3) 0.0810(3) 0.1500(2) 0.0372(7) 1. 0
C6 C0+ 16 o 0.3336(3) 0.1592(3) 0.0779(2) 0.0363(7) 1. 0
C7 C0+ 8 n 0.4111(4) 0.0873(4) 0 0.0354(9) 1. 0
C8 C0+ 8 m 0.0757(5) 0 0.2269(3) 0.0378(9) 1. 0
C9 C0+ 8 l 0 0.4133(4) 0.0518(3) 0.038(1) 1. 0
loop_
_atom_site_aniso_label
_atom_site_aniso_type_symbol
_atom_site_aniso_U_11
_atom_site_aniso_U_22
_atom_site_aniso_U_33
_atom_site_aniso_U_12
_atom_site_aniso_U_13
_atom_site_aniso_U_23
C1 C0+ 0.032(2) 0.033(2) 0.047(2) -0.002(1) -0.001(1) -0.004(1)
C2 C0+ 0.031(1) 0.029(1) 0.049(2) -0.001(1) -0.003(1) -0.003(1)
C3 C0+ 0.032(1) 0.033(1) 0.048(2) -0.001(1) -0.003(1) -0.005(1)
C4 C0+ 0.030(1) 0.033(1) 0.050(2) -0.002(1) -0.001(1) 0.001(1)
C5 C0+ 0.029(1) 0.033(1) 0.049(2) 0.001(1) -0.002(1) -0.000(1)
C6 C0+ 0.025(1) 0.034(1) 0.050(2) -0.001(1) -0.001(1) -0.002(1)
C7 C0+ 0.027(2) 0.029(2) 0.050(2) 0.001(2) 0. 0.
C8 C0+ 0.033(2) 0.036(2) 0.044(2) 0. -0.001(2) 0.
C9 C0+ 0.032(2) 0.031(2) 0.052(2) 0. 0. 0.000(2)
#End of TTdata_96620-ICSD