
#(C) 2017 by FIZ Karlsruhe - Leibniz Institute for Information Infrastructure.  All rights reserved.
data_86206-ICSD
_database_code_ICSD 86206
_audit_creation_date 1999-11-30
_audit_update_record 2016-02-01
_chemical_name_systematic 'Silicon oxide (72/144)'
_chemical_formula_structural '(Si O2)72'
_chemical_formula_sum 'O144 Si72'
_chemical_name_structure_type Si72O144
_chemical_name_mineral 'Zeolite ITQ-1'
_exptl_crystal_density_diffrn 1.65
_publ_section_title

;
Synthesis and structural characterization of MWW type zeolite ITQ-1, the pure
silica analog of MCM-22 and SSZ-25
;
loop_
_citation_id
_citation_journal_full
_citation_year
_citation_journal_volume
_citation_page_first
_citation_page_last
_citation_journal_id_ASTM
primary 'Journal of Physical Chemistry B' 1998 102 44 51 JPCBFK
loop_
_publ_author_name
'Camblor, M.A.'
'Corma, A.'
'Diaz-Cabanas, M.J.'
'Baerlocher, C.'
_cell_length_a 14.2081(1)
_cell_length_b 14.2081(1)
_cell_length_c 24.9450(20)
_cell_angle_alpha 90.
_cell_angle_beta 90.
_cell_angle_gamma 120.
_cell_volume 4361.
_cell_formula_units_Z 1
_symmetry_space_group_name_H-M 'P 6/m m m'
_symmetry_Int_Tables_number 191
_refine_ls_R_factor_all 0.065
loop_
_symmetry_equiv_pos_site_id
_symmetry_equiv_pos_as_xyz
1 '-x, -x+y, -z'
2 'x-y, -y, -z'
3 'y, x, -z'
4 '-x+y, -x, -z'
5 '-y, x-y, -z'
6 'x, y, -z'
7 'x, x-y, -z'
8 '-x+y, y, -z'
9 '-y, -x, -z'
10 'x-y, x, -z'
11 'y, -x+y, -z'
12 '-x, -y, -z'
13 'x, x-y, z'
14 '-x+y, y, z'
15 '-y, -x, z'
16 'x-y, x, z'
17 'y, -x+y, z'
18 '-x, -y, z'
19 '-x, -x+y, z'
20 'x-y, -y, z'
21 'y, x, z'
22 '-x+y, -x, z'
23 '-y, x-y, z'
24 'x, y, z'
loop_
_atom_type_symbol
_atom_type_oxidation_number
Si4+ 4
O2- -2
loop_
_atom_site_label
_atom_site_type_symbol
_atom_site_symmetry_multiplicity
_atom_site_Wyckoff_symbol
_atom_site_fract_x
_atom_site_fract_y
_atom_site_fract_z
_atom_site_B_iso_or_equiv
_atom_site_occupancy
_atom_site_attached_hydrogens
Si1 Si4+ 4 h 0.6667 0.3333 0.0633(3) 0.014(1) 1. 0
Si2 Si4+ 12 o 0.4684(4) 0.2342(2) 0.1356(3) 0.014(1) 1. 0
Si3 Si4+ 12 n 0.3904(4) 0 0.1607(3) 0.014(1) 1. 0
Si4 Si4+ 4 h 0.6667 0.3333 0.2108(4) 0.014(1) 1. 0
Si5 Si4+ 4 h 0.6667 0.3333 0.3404(4) 0.014(1) 1. 0
Si6 Si4+ 12 n 0.3895(4) 0 0.2872(3) 0.014(1) 1. 0
Si7 Si4+ 12 o 0.4216(4) 0.2108(2) 0.3470(2) 0.014(1) 1. 0
Si8 Si4+ 12 o 0.2544(4) 0.1272(2) 0.4407(2) 0.014(1) 1. 0
O1 O2- 2 c 0.6667 0.3333 0 0.019(2) 1. 0
O2 O2- 12 o 0.5410(6) 0.2705(3) 0.0822(4) 0.019(2) 1. 0
O3 O2- 24 r 0.3942(5) 0.1048(4) 0.1348(3) 0.019(2) 1. 0
O4 O2- 12 o 0.5452(6) 0.2726(3) 0.1882(4) 0.019(2) 1. 0
O5 O2- 4 h 0.6667 0.3333 0.2755(4) 0.019(2) 1. 0
O6 O2- 12 n 0.3763(9) 0 0.2239(3) 0.019(2) 1. 0
O7 O2- 6 i 0.5 0 0.1449(7) 0.019(2) 1. 0
O8 O2- 6 i 0.5 0 0.3021(7) 0.019(2) 1. 0
O9 O2- 24 r 0.3945(6) 0.1063(5) 0.3116(3) 0.019(2) 1. 0
O10 O2- 12 o 0.5470(6) 0.2735(3) 0.3638(4) 0.019(2) 1. 0
O11 O2- 12 o 0.3536(8) 0.1768(4) 0.4014(4) 0.019(2) 1. 0
O12 O2- 12 n 0.1835(6) 0 0.4300(5) 0.019(2) 1. 0
O13 O2- 6 m 0.3016(14) 0.1508(7) 0.5 0.019(2) 1. 0
#End of TTdata_86206-ICSD