
#(C) 2017 by FIZ Karlsruhe - Leibniz Institute for Information Infrastructure.  All rights reserved.
data_28142-ICSD
_database_code_ICSD 28142
_audit_creation_date 1980-01-01
_audit_update_record 2017-02-01
_chemical_name_systematic 'Octasulfur - gamma'
_chemical_formula_structural S8
_chemical_formula_sum S8
_chemical_name_structure_type S8(P21)
_exptl_crystal_density_diffrn 2.06
_cell_measurement_temperature 189.
_publ_section_title

;
Molecular dynamics in the solid state. The order - disorder transition of
monoclinic sulfur
;
loop_
_citation_id
_citation_journal_full
_citation_year
_citation_journal_volume
_citation_page_first
_citation_page_last
_citation_journal_id_ASTM
primary 'Journal of the American Chemical Society' 1977 99 7580 7589 JACSAT
loop_
_publ_author_name
'Goldsmith, L.M.'
'Strouse, C.E.'
_cell_length_a 10.841(2)
_cell_length_b 10.739(3)
_cell_length_c 10.700(4)
_cell_angle_alpha 90.
_cell_angle_beta 95.68(3)
_cell_angle_gamma 90.
_cell_volume 1239.59
_cell_formula_units_Z 6
_symmetry_space_group_name_H-M 'P 1 21 1'
_symmetry_Int_Tables_number 4
_refine_ls_R_factor_all 0.025
loop_
_symmetry_equiv_pos_site_id
_symmetry_equiv_pos_as_xyz
1 '-x, y+1/2, -z'
2 'x, y, z'
loop_
_atom_type_symbol
_atom_type_oxidation_number
S0+ 0
loop_
_atom_site_label
_atom_site_type_symbol
_atom_site_symmetry_multiplicity
_atom_site_Wyckoff_symbol
_atom_site_fract_x
_atom_site_fract_y
_atom_site_fract_z
_atom_site_B_iso_or_equiv
_atom_site_occupancy
_atom_site_attached_hydrogens
S1 S0+ 2 a 0.2265(1) 0.5267 0.2816(1) . 1. 0
S2 S0+ 2 a 0.1461(1) 0.3550(2) 0.2584(1) . 1. 0
S3 S0+ 2 a 0.2497(1) 0.2510(2) 0.1470(1) . 1. 0
S4 S0+ 2 a 0.3663(1) 0.1412(2) 0.2628(1) . 1. 0
S5 S0+ 2 a 0.5355(1) 0.2272(2) 0.2861(1) . 1. 0
S6 S0+ 2 a 0.5499(1) 0.3145(2) 0.4569(1) . 1. 0
S7 S0+ 2 a 0.5095(1) 0.4989(2) 0.4278(1) . 1. 0
S8 S0+ 2 a 0.3273(1) 0.5252(2) 0.4545(1) . 1. 0
S9 S0+ 2 a -.2391(1) -.5283(1) 0.2270(1) . 1. 0
S10 S0+ 2 a -.1594(1) -.3566(2) 0.2495(1) . 1. 0
S11 S0+ 2 a -.2655(1) -.2506(2) 0.3570(1) . 1. 0
S12 S0+ 2 a -.3790(1) -.1424(2) 0.2376(1) . 1. 0
S13 S0+ 2 a -.5482(1) -.2277(2) 0.2102(1) . 1. 0
S14 S0+ 2 a -.5584(1) -.3178(1) 0.0400(1) . 1. 0
S15 S0+ 2 a -.5183(1) -.5022(2) 0.0721(1) . 1. 0
S16 S0+ 2 a -.3347(1) -.5282(2) 0.0513(1) . 1. 0
S17 S0+ 2 a 0.1769(1) -.1133(2) 0.3361(2) . 1. 0
S18 S0+ 2 a 0.0461(1) -.0756(2) 0.4566(1) . 1. 0
S19 S0+ 2 a 0.0044(2) 0.1103(2) 0.4404(1) . 1. 0
S20 S0+ 2 a -.1580(2) 0.1289(2) 0.3270(1) . 1. 0
S21 S0+ 2 a -.1179(1) 0.1725(2) 0.1496(1) . 1. 0
S22 S0+ 2 a -.1247(2) 0.0102(2) 0.0496(1) . 1. 0
S23 S0+ 2 a 0.0542(1) -.0487(2) 0.0458(1) . 1. 0
S24 S0+ 2 a 0.0881(2) -.1875(2) 0.1748(2) . 1. 0
S25 S0+ 2 a -.1835(7) 0.1090(12) 0.1725(10) . 0.01 0
S26 S0+ 2 a -.0567(11) 0.0649(12) 0.0443(9) . 0.01 0
S27 S0+ 2 a -.0097(11) -.1153(11) 0.0619(9) . 0.01 0
S28 S0+ 2 a 0.153(1) -.1326(12) 0.1694(9) . 0.01 0
S29 S0+ 2 a 0.1236(9) -.1716(11) 0.3494(8) . 0.01 0
S30 S0+ 2 a 0.1300(8) -.0092(11) 0.4476(8) . 0.01 0
S31 S0+ 2 a -.0488(10) 0.0470(14) 0.4582(9) . 0.01 0
S32 S0+ 2 a -.0948(10) 0.1799(12) 0.3276(11) . 0.01 0
loop_
_atom_site_aniso_label
_atom_site_aniso_type_symbol
_atom_site_aniso_beta_11
_atom_site_aniso_beta_22
_atom_site_aniso_beta_33
_atom_site_aniso_beta_12
_atom_site_aniso_beta_13
_atom_site_aniso_beta_23
S1 S0+ 0.0061(1) 0.0045(1) 0.0065(1) 0.0006(1) 0.0000(1) 0.0005(1)
S2 S0+ 0.0049(1) 0.0063(1) 0.0084(1) -.0011(1) 0.0001(1) 0.0003(1)
S3 S0+ 0.0071(1) 0.0059(1) 0.0057(1) -.0007(1) -.0018(1) -.0007(1)
S4 S0+ 0.0074(1) 0.0035(1) 0.0072(1) -.0008(1) -.0009(1) 0.0001(1)
S5 S0+ 0.0055(1) 0.0045(1) 0.0046(1) 0.0005(1) 0.0005(1) -.0003(1)
S6 S0+ 0.0062(1) 0.0048(1) 0.0039(1) 0.0000(1) -.0008(1) 0.0005(1)
S7 S0+ 0.0060(1) 0.0042(1) 0.0052(1) -.0010(1) 0.0000(1) -.0006(1)
S8 S0+ 0.0069(1) 0.0055(1) 0.0049(1) 0.0002(1) 0.0013(1) -.0012(1)
S9 S0+ 0.0056(1) 0.0051(1) 0.0057(1) 0.0009(1) 0.0005(1) 0.0004(1)
S10 S0+ 0.0045(1) 0.0075(1) 0.0074(1) -.0012(1) -.0004(1) 0.0008(1)
S11 S0+ 0.0076(1) 0.0051(1) 0.0056(1) -.0005(1) -.0023(1) -.0005(1)
S12 S0+ 0.0077(1) 0.0039(1) 0.0067(1) -.0011(1) -.0017(1) 0.0003(1)
S13 S0+ 0.0058(1) 0.0048(1) 0.0046(1) 0.0006(1) 0.0004(1) -.0002(1)
S14 S0+ 0.0057(1) 0.0050(1) 0.0037(1) 0.0000(1) -.0005(1) 0.0003(1)
S15 S0+ 0.0055(1) 0.0040(1) 0.0056(1) -.0009(1) 0.0002(1) -.0004(1)
S16 S0+ 0.0063(1) 0.0059(1) 0.0051(1) 0.0003(1) 0.0009(1) -.0013(1)
S17 S0+ 0.0050(1) 0.0068(2) 0.0102(2) 0.0005(1) -.0014(1) 0.0002(1)
S18 S0+ 0.0091(2) 0.0069(2) 0.0066(1) 0.0001(1) -.0003(1) 0.0027(1)
S19 S0+ 0.0102(2) 0.0068(2) 0.0048(1) 0.0007(1) -.0013(1) -.0001(1)
S20 S0+ 0.0062(1) 0.0073(1) 0.0054(1) 0.0015(1) 0.0016(1) 0.0006(1)
S21 S0+ 0.0064(1) 0.0053(1) 0.0047(1) 0.0007(1) 0.0001(1) 0.0011(1)
S22 S0+ 0.0067(1) 0.0084(2) 0.0059(1) 0.0006(1) -.0012(1) -.0019(1)
S23 S0+ 0.0076(1) 0.0085(2) 0.0066(1) 0.0007(1) 0.0023(1) -.0005(1)
S24 S0+ 0.0065(1) 0.0047(1) 0.0105(2) 0.0000(1) 0.0000(1) -.0010(1)
S25 S0+ 0.0015(6) 0.0102(13) 0.0102(11) 0.0013(7) -.0027(6) 0.000(1)
S26 S0+ 0.0068(10) 0.0088(12) 0.0056(9) 0.0029(9) -.0013(7) 0.0021(8)
S27 S0+ 0.0095(11) 0.0064(11) 0.0058(9) 0.000(1) -.0027(8) -.0013(8)
S28 S0+ 0.0061(8) 0.0085(12) 0.0054(8) 0.0021(10) 0.0022(7) -.0005(8)
S29 S0+ 0.0047(8) 0.0067(10) 0.0052(8) 0.0003(8) -.0013(6) 0.0000(7)
S30 S0+ 0.0039(7) 0.0090(11) 0.0057(8) 0.0025(8) -.0010(5) -.0014(8)
S31 S0+ 0.0050(8) 0.0100(13) 0.0055(9) 0.0027(9) 0.0011(7) -.0013(9)
S32 S0+ 0.0043(8) 0.0062(10) 0.0121(12) 0.0010(8) -.0009(8) -.0046(9)
#End of TTdata_28142-ICSD