
#(C) 2018 by FIZ Karlsruhe - Leibniz Institute for Information Infrastructure.  All rights reserved.
data_16021-ICSD
_database_code_ICSD 16021
_audit_creation_date 1986-09-23
_audit_update_record 2012-02-01
_chemical_name_systematic 'Boron oxide'
_chemical_formula_structural 'B2 O3'
_chemical_formula_sum 'B2 O3'
_chemical_name_structure_type B2O3
_exptl_crystal_density_diffrn 2.55
_publ_section_title 'The crystal structure of trigonal diboron trioxide'
loop_
_citation_id
_citation_journal_full
_citation_year
_citation_journal_volume
_citation_page_first
_citation_page_last
_citation_journal_id_ASTM
primary

;
Acta Crystallographica, Section B: Structural Crystallography and Crystal
Chemistry
; 1970 26 906 915 ACBCAR
loop_
_publ_author_name
'Gurr, G.E.'
'Montgomery, P.W.'
'Knutson, C.D.'
'Gorres, B.T.'
_cell_length_a 4.3358(5)
_cell_length_b 4.3358(5)
_cell_length_c 8.3397(18)
_cell_angle_alpha 90.
_cell_angle_beta 90.
_cell_angle_gamma 120.
_cell_volume 135.77
_cell_formula_units_Z 3
_symmetry_space_group_name_H-M 'P 31'
_symmetry_Int_Tables_number 144
_refine_ls_R_factor_all 0.059
loop_
_symmetry_equiv_pos_site_id
_symmetry_equiv_pos_as_xyz
1 '-x+y, -x, z+2/3'
2 '-y, x-y, z+1/3'
3 'x, y, z'
loop_
_atom_type_symbol
_atom_type_oxidation_number
O2- -2
B3+ 3
loop_
_atom_site_label
_atom_site_type_symbol
_atom_site_symmetry_multiplicity
_atom_site_Wyckoff_symbol
_atom_site_fract_x
_atom_site_fract_y
_atom_site_fract_z
_atom_site_B_iso_or_equiv
_atom_site_occupancy
_atom_site_attached_hydrogens
O1 O2- 3 a 0.5468(30) 0.3972(32) 0 0.82 1. 0
O2 O2- 3 a 0.1485(21) 0.6004(33) 0.0775(9) 0.75 1. 0
O3 O2- 3 a 0.0045(24) 0.1608(36) -.1291(23) 0.58 1. 0
B1 B3+ 3 a 0.2229(48) 0.3926(47) -.0198(26) 1.28 1. 0
B2 B3+ 3 a 0.8281(43) 0.6031(45) 0.0921(24) 0.81 1. 0
#End of TTdata_16021-ICSD