
#(C) 2017 by FIZ Karlsruhe - Leibniz Institute for Information Infrastructure.  All rights reserved.
data_41824-ICSD
_database_code_ICSD 41824
_audit_creation_date 2000-07-15
_chemical_name_systematic 'Cerium - HP, alpha"'
_chemical_formula_structural Ce
_chemical_formula_sum Ce1
_exptl_crystal_density_diffrn 9.73
_cell_measurement_pressure 5600000.
_publ_section_title 'The crystal structure of cerium metal at high pressure'
loop_
_citation_id
_citation_journal_full
_citation_year
_citation_journal_volume
_citation_page_first
_citation_page_last
_citation_journal_id_ASTM
primary 'Acta Crystallographica A (24,1968-38,1982)' 1977 33 155 160 ACACBN
loop_
_publ_author_name
'Zachariasen, W.H.'
'Ellinger, F.H.'
_cell_length_a 4.762(6)
_cell_length_b 3.170(5)
_cell_length_c 3.169(5)
_cell_angle_alpha 90.
_cell_angle_beta 91.73(15)
_cell_angle_gamma 90.
_cell_volume 47.82
_cell_formula_units_Z 2
_symmetry_space_group_name_H-M 'I 1 2/m 1'
_symmetry_Int_Tables_number 12
loop_
_symmetry_equiv_pos_site_id
_symmetry_equiv_pos_as_xyz
1 'x, -y, z'
2 '-x, -y, -z'
3 '-x, y, -z'
4 'x, y, z'
5 'x+1/2, -y+1/2, z+1/2'
6 '-x+1/2, -y+1/2, -z+1/2'
7 '-x+1/2, y+1/2, -z+1/2'
8 'x+1/2, y+1/2, z+1/2'
loop_
_atom_type_symbol
_atom_type_oxidation_number
Ce0+ 0
loop_
_atom_site_label
_atom_site_type_symbol
_atom_site_symmetry_multiplicity
_atom_site_Wyckoff_symbol
_atom_site_fract_x
_atom_site_fract_y
_atom_site_fract_z
_atom_site_B_iso_or_equiv
_atom_site_occupancy
_atom_site_attached_hydrogens
Ce1 Ce0+ 2 a 0 0 0 . 1. 0
#End of TTdata_41824-ICSD