
#(C) 2018 by FIZ Karlsruhe - Leibniz Institute for Information Infrastructure.  All rights reserved.
data_16416-ICSD
_database_code_ICSD 16416
_audit_creation_date 1981-12-31
_chemical_name_systematic 'Manganese phosphide (1/4)'
_chemical_formula_structural 'Mn P4'
_chemical_formula_sum 'Mn1 P4'
_exptl_crystal_density_diffrn 4.07
_publ_section_title
'Stacking Variants of Mn P4: Preparation and Structure of 6-Mn P4'
loop_
_citation_id
_citation_journal_full
_citation_year
_citation_journal_volume
_citation_page_first
_citation_page_last
_citation_journal_id_ASTM
primary

;
Acta Crystallographica, Section B: Structural Crystallography and Crystal
Chemistry
; 1981 37 39 44 ACBCAR
loop_
_publ_author_name
'Ruehl, R.'
'Jeitschko, W.'
_cell_length_a 16.347(3)
_cell_length_b 5.847(4)
_cell_length_c 5.108(3)
_cell_angle_alpha 115.66(2)
_cell_angle_beta 95.15(5)
_cell_angle_gamma 89.21(3)
_cell_volume 438.13
_cell_formula_units_Z 6
_symmetry_space_group_name_H-M 'P -1'
_symmetry_Int_Tables_number 2
_refine_ls_R_factor_all 0.06
loop_
_symmetry_equiv_pos_site_id
_symmetry_equiv_pos_as_xyz
1 '-x, -y, -z'
2 'x, y, z'
loop_
_atom_type_symbol
_atom_type_oxidation_number
Mn6+ 6
P1- -1.5
Mn6+ 6
P1- -1.5
Mn6+ 6
P1- -1.5
loop_
_atom_site_label
_atom_site_type_symbol
_atom_site_symmetry_multiplicity
_atom_site_Wyckoff_symbol
_atom_site_fract_x
_atom_site_fract_y
_atom_site_fract_z
_atom_site_B_iso_or_equiv
_atom_site_occupancy
_atom_site_attached_hydrogens
Mn1 Mn6+ 2 i 0.0757(1) 0.8781(4) 0.8697(5) 0.20(3) 1. 0
P1 P1- 2 i 0.0651(2) 0.5709(7) 0.0119(8) 0.28(3) 1. 0
P2 P1- 2 i 0.1000(2) 0.1727(7) 0.7146(8) 0.30(3) 1. 0
P3 P1- 2 i 0.0563(2) 0.1916(7) 0.3103(8) 0.24(3) 1. 0
P4 P1- 2 i 0.1160(2) 0.5696(7) 0.4306(8) 0.19(3) 1. 0
Mn2 Mn6+ 2 i 0.2586(1) 0.5498(4) 0.5093(5) 0.15(3) 1. 0
P5 P1- 2 i 0.2301(2) 0.2465(7) 0.6560(8) 0.28(3) 1. 0
P6 P1- 2 i 0.2738(2) 0.2403(7) 0.0734(8) 0.32(3) 1. 0
P7 P1- 2 i 0.2716(2) 0.8589(7) 0.3654(8) 0.23(3) 1. 0
P8 P1- 2 i 0.2200(2) 0.8538(7) 0.9450(8) 0.30(3) 1. 0
Mn3 Mn6+ 2 i 0.4067(1) 0.8194(4) -.4995(5) 0.15(3) 1. 0
P9 P1- 2 i 0.4002(2) 0.1235(7) 0.9538(8) 0.24(3) 1. 0
P10 P1- 2 i 0.4342(2) 0.5238(7) 0.0562(8) 0.36(3) 1. 0
P11 P1- 2 i 0.3907(2) 0.5043(7) 0.6289(8) 0.27(3) 1. 0
P12 P1- 2 i 0.4503(2) 0.1373(7) 0.3813(8) 0.20(3) 1. 0
#End of TTdata_16416-ICSD