
#(C) 2018 by FIZ Karlsruhe - Leibniz Institute for Information Infrastructure.  All rights reserved.
data_15844-ICSD
_database_code_ICSD 15844
_audit_creation_date 1986-08-04
_audit_update_record 2010-08-01
_chemical_name_systematic 'Manganese ditellurium oxide'
_chemical_formula_structural 'Mn Te2 O5'
_chemical_formula_sum 'Mn1 O5 Te2'
_chemical_name_structure_type MnTe2O5
_chemical_name_mineral Denningite
_exptl_crystal_density_diffrn 5.11
_publ_section_title

;
Die Kristallstruktur von Denningit, (Mn, Ca, Zn) Te2 O5. Ein Beispiel fuer die
Koordination um vierwertiges Tellur
;
loop_
_citation_id
_citation_journal_full
_citation_year
_citation_journal_volume
_citation_page_first
_citation_page_last
_citation_journal_id_ASTM
primary 'Tschermaks Mineralogische und Petrographische Mitteilungen' 1965 10 241
255 MPMTAG
loop_
_publ_author_name
'Walitzi, E.M.'
_cell_length_a 8.82(5)
_cell_length_b 8.82(5)
_cell_length_c 13.04(5)
_cell_angle_alpha 90.
_cell_angle_beta 90.
_cell_angle_gamma 90.
_cell_volume 1014.41
_cell_formula_units_Z 8
_symmetry_space_group_name_H-M 'P 42/n b c Z'
_symmetry_Int_Tables_number 133
_refine_ls_R_factor_all 0.061
loop_
_symmetry_equiv_pos_site_id
_symmetry_equiv_pos_as_xyz
1 'y, x, -z+1/2'
2 '-y, x+1/2, -z+1/2'
3 'y+1/2, -x, -z+1/2'
4 '-y+1/2, -x+1/2, -z+1/2'
5 'x+1/2, y+1/2, -z'
6 '-x+1/2, y, -z'
7 'x, -y+1/2, -z'
8 '-x, -y, -z'
9 '-y, -x, z+1/2'
10 'y, -x+1/2, z+1/2'
11 '-y+1/2, x, z+1/2'
12 'y+1/2, x+1/2, z+1/2'
13 '-x+1/2, -y+1/2, z'
14 'x+1/2, -y, z'
15 '-x, y+1/2, z'
16 'x, y, z'
loop_
_atom_type_symbol
_atom_type_oxidation_number
Mn2+ 2
Te4+ 4
O2- -2
loop_
_atom_site_label
_atom_site_type_symbol
_atom_site_symmetry_multiplicity
_atom_site_Wyckoff_symbol
_atom_site_fract_x
_atom_site_fract_y
_atom_site_fract_z
_atom_site_B_iso_or_equiv
_atom_site_occupancy
_atom_site_attached_hydrogens
Mn1 Mn2+ 4 a 0.25 0.25 0 0.4 1. 0
Mn2 Mn2+ 4 c 0.25 0.25 0.25 0.55 1. 0
Te1 Te4+ 16 k 0.0377 0.5647 0.3823 1.3 1. 0
O1 O2- 16 k 0.163 0.102 0.353 1.5 1. 0
O2 O2- 16 k 0.015 0.376 0.445 1.5 1. 0
O3 O2- 8 j 0.558 0.558 0.25 1.5 1. 0
#End of TTdata_15844-ICSD