
#(C) 2018 by FIZ Karlsruhe - Leibniz Institute for Information Infrastructure.  All rights reserved.
data_281221-ICSD
_database_code_ICSD 281221
_audit_creation_date 2003-10-01
_audit_update_record 2011-02-01
_chemical_name_systematic 'Silicon oxide (36/72)'
_chemical_formula_structural 'Si36 O72'
_chemical_formula_sum 'O72 Si36'
_chemical_name_structure_type Si36O72
_chemical_name_mineral 'Ferrierite (Al-free, calcined)'
_exptl_crystal_density_diffrn 1.84
_cell_measurement_temperature 513.
_publ_section_title

;
An X-ray diffraction and MAS NMR study of the thermal expansion properties of
calcined siliceous ferrierite
;
loop_
_citation_id
_citation_journal_full
_citation_year
_citation_journal_volume
_citation_page_first
_citation_page_last
_citation_journal_id_ASTM
primary 'Journal of the American Chemical Society' 2003 125 4342 4349 JACSAT
loop_
_publ_author_name
'Bull, I.'
'Lightfoot, P.'
'Villaescusa, L.A.'
'Bull, L.M.'
'Gover, R.K.B.'
'Evans, J.S.O.'
'Morris, R.E.'
_cell_length_a 7.424(6)
_cell_length_b 14.055(11)
_cell_length_c 18.750(13)
_cell_angle_alpha 90.
_cell_angle_beta 90.
_cell_angle_gamma 90.
_cell_volume 1956.46
_cell_formula_units_Z 1
_symmetry_space_group_name_H-M 'I m m m'
_symmetry_Int_Tables_number 71
_refine_ls_R_factor_all 0.089
loop_
_symmetry_equiv_pos_site_id
_symmetry_equiv_pos_as_xyz
1 'x, y, -z'
2 'x, -y, z'
3 '-x, y, z'
4 '-x, -y, -z'
5 '-x, -y, z'
6 '-x, y, -z'
7 'x, -y, -z'
8 'x, y, z'
9 'x+1/2, y+1/2, -z+1/2'
10 'x+1/2, -y+1/2, z+1/2'
11 '-x+1/2, y+1/2, z+1/2'
12 '-x+1/2, -y+1/2, -z+1/2'
13 '-x+1/2, -y+1/2, z+1/2'
14 '-x+1/2, y+1/2, -z+1/2'
15 'x+1/2, -y+1/2, -z+1/2'
16 'x+1/2, y+1/2, z+1/2'
loop_
_atom_type_symbol
_atom_type_oxidation_number
Si4+ 4
O2- -2
loop_
_atom_site_label
_atom_site_type_symbol
_atom_site_symmetry_multiplicity
_atom_site_Wyckoff_symbol
_atom_site_fract_x
_atom_site_fract_y
_atom_site_fract_z
_atom_site_B_iso_or_equiv
_atom_site_occupancy
_atom_site_attached_hydrogens
Si1 Si4+ 8 l 0 0.29920(15) 0.08341(17) 0.0260(8) 1. 0
Si2 Si4+ 16 o 0.2939(2) 0.20211(11) 0.17568(12) 0.0288(7) 1. 0
Si3 Si4+ 4 j 0 0.5 0.1536(2) 0.0291(11) 1. 0
Si4 Si4+ 8 m 0.2060(3) 0 0.22687(17) 0.0326(9) 1. 0
O1 O2- 8 l 0.5 0.2183(5) 0.1562(6) 0.057(3) 1. 0
O2 O2- 16 o 0.2508(9) 0.0913(3) 0.1805(3) 0.0541(17) 1. 0
O3 O2- 4 g 0 0.2894(7) 0 0.041(3) 1. 0
O4 O2- 4 i 0 0 0.2500(7) 0.061(3) 1. 0
O5 O2- 16 o 0.1760(8) 0.2492(4) 0.1147(3) 0.0560(18) 1. 0
O6 O2- 8 l 0 0.4083(5) 0.1039(4) 0.057(3) 1. 0
O7 O2- 8 m 0.1740(11) 0.5 0.2016(5) 0.064(3) 1. 0
O8 O2- 8 k 0.25 0.25 0.25 0.072(3) 1. 0
loop_
_atom_site_aniso_label
_atom_site_aniso_type_symbol
_atom_site_aniso_U_11
_atom_site_aniso_U_22
_atom_site_aniso_U_33
_atom_site_aniso_U_12
_atom_site_aniso_U_13
_atom_site_aniso_U_23
Si1 Si4+ 0.0181(11) 0.0333(11) 0.027(2) 0 0 0.0021(10)
Si2 Si4+ 0.0196(8) 0.0349(8) 0.0319(19) 0.0028(6) -0.0004(8) 0.0038(7)
Si3 Si4+ 0.0207(16) 0.0307(15) 0.036(3) 0 0 0
Si4 Si4+ 0.0201(11) 0.0322(11) 0.046(3) 0 -0.0031(12) 0
O1 O2- 0.019(3) 0.073(5) 0.079(8) 0 0 0.017(4)
O2 O2- 0.066(4) 0.038(2) 0.058(5) -0.004(2) 0.000(3) 0.006(2)
O3 O2- 0.044(7) 0.061(6) 0.017(9) 0 0 0
O4 O2- 0.022(5) 0.086(8) 0.074(10) 0 0 0
O5 O2- 0.041(3) 0.070(3) 0.057(5) 0.016(3) -0.006(3) 0.016(3)
O6 O2- 0.083(7) 0.038(3) 0.052(6) 0 0 -0.005(3)
O7 O2- 0.032(4) 0.109(6) 0.050(7) 0 -0.037(5) 0
O8 O2- 0.084(8) 0.089(6) 0.042(7) -0.008(5) 0.011(6) -0.025(5)
#End of TTdata_281221-ICSD