
#(C) 2017 by FIZ Karlsruhe - Leibniz Institute for Information Infrastructure.  All rights reserved.
data_27844-ICSD
_database_code_ICSD 27844
_audit_creation_date 1980-01-01
_audit_update_record 2003-04-01
_chemical_name_systematic 'Hydrogen oxide - Ice III'
_chemical_formula_structural 'H2 O'
_chemical_formula_sum 'H2 O1'
_chemical_name_mineral 'Ice III'
_exptl_crystal_density_diffrn 1.11
_cell_measurement_temperature 118.
_publ_section_title 'The structure of ice III'
loop_
_citation_id
_citation_journal_full
_citation_year
_citation_journal_volume
_citation_page_first
_citation_page_last
_citation_journal_id_ASTM
primary 'Journal of Chemical Physics' 1936 4 253 259 JCPSA6
loop_
_publ_author_name
'McFarlan, R.L.'
_cell_length_a 10.2
_cell_length_b 5.87
_cell_length_c 7.17
_cell_angle_alpha 90.
_cell_angle_beta 90.
_cell_angle_gamma 90.
_cell_volume 429.3
_cell_formula_units_Z 16
_symmetry_space_group_name_H-M 'I b a m'
_symmetry_Int_Tables_number 72
loop_
_symmetry_equiv_pos_site_id
_symmetry_equiv_pos_as_xyz
1 '-x, y, z+1/2'
2 'x, -y, z+1/2'
3 'x, y, -z'
4 '-x, -y, -z'
5 'x, -y, -z+1/2'
6 '-x, y, -z+1/2'
7 '-x, -y, z'
8 'x, y, z'
9 '-x+1/2, y+1/2, z'
10 'x+1/2, -y+1/2, z'
11 'x+1/2, y+1/2, -z+1/2'
12 '-x+1/2, -y+1/2, -z+1/2'
13 'x+1/2, -y+1/2, -z'
14 '-x+1/2, y+1/2, -z'
15 '-x+1/2, -y+1/2, z+1/2'
16 'x+1/2, y+1/2, z+1/2'
loop_
_atom_type_symbol
_atom_type_oxidation_number
O2- -2
H1+ 1
loop_
_atom_site_label
_atom_site_type_symbol
_atom_site_symmetry_multiplicity
_atom_site_Wyckoff_symbol
_atom_site_fract_x
_atom_site_fract_y
_atom_site_fract_z
_atom_site_B_iso_or_equiv
_atom_site_occupancy
_atom_site_attached_hydrogens
O1 O2- 16 k 0.126 0.218 0.3125 . 1. 0
H1 H1+ 8 e 0.25 0.25 0.25 . 1. 0
H2 H1+ 8 f 0.126 0 0.25 . 1. 0
H3 H1+ 8 g 0 0.218 0.25 . 1. 0
H4 H1+ 4 d 0 0.5 0.5 . 1. 0
#End of TTdata_27844-ICSD