
#(C) 2017 by FIZ Karlsruhe - Leibniz Institute for Information Infrastructure.  All rights reserved.
data_27837-ICSD
_database_code_ICSD 27837
_audit_creation_date 1980-01-01
_audit_update_record 2007-08-01
_chemical_name_systematic 'Dihydrogen oxide - Ice 1h'
_chemical_formula_structural 'H2 O'
_chemical_formula_sum 'H2 O1'
_chemical_name_mineral 'Ice Ih'
_exptl_crystal_density_diffrn 0.92
_publ_section_title

;
A theory of water and ionic solution, with particular reference to hydrogen
and hydroxyl Ions
;
loop_
_citation_id
_citation_journal_full
_citation_year
_citation_journal_volume
_citation_page_first
_citation_page_last
_citation_journal_id_ASTM
primary 'Journal of Chemical Physics' 1933 1 515 548 JCPSA6
loop_
_publ_author_name
'Bernal, J.D.'
'Fowler, R.H.'
_cell_length_a 7.82
_cell_length_b 7.82
_cell_length_c 7.36
_cell_angle_alpha 90.
_cell_angle_beta 90.
_cell_angle_gamma 120.
_cell_volume 389.78
_cell_formula_units_Z 12
_symmetry_space_group_name_H-M 'P 63 c m'
_symmetry_Int_Tables_number 185
loop_
_symmetry_equiv_pos_site_id
_symmetry_equiv_pos_as_xyz
1 'x, x-y, z+1/2'
2 '-x+y, y, z+1/2'
3 '-y, -x, z+1/2'
4 'x-y, x, z+1/2'
5 'y, -x+y, z+1/2'
6 '-x, -y, z+1/2'
7 '-x, -x+y, z'
8 'x-y, -y, z'
9 'y, x, z'
10 '-x+y, -x, z'
11 '-y, x-y, z'
12 'x, y, z'
loop_
_atom_type_symbol
_atom_type_oxidation_number
O2- -2
H1+ 1
loop_
_atom_site_label
_atom_site_type_symbol
_atom_site_symmetry_multiplicity
_atom_site_Wyckoff_symbol
_atom_site_fract_x
_atom_site_fract_y
_atom_site_fract_z
_atom_site_B_iso_or_equiv
_atom_site_occupancy
_atom_site_attached_hydrogens
O1 O2- 6 c 0.3333 0 0.0625 . 1. 0
O2 O2- 6 c 0.6667 0 0.9375 . 1. 0
H1 H1+ 6 c 0.3333 0 0.174 . 1. 0
H2 H1+ 6 c 0.438 0 0.026 . 1. 0
H3 H1+ 12 d 0.772 0.105 0.975 . 1. 0
#End of TTdata_27837-ICSD