
#(C) 2018 by FIZ Karlsruhe - Leibniz Institute for Information Infrastructure.  All rights reserved.
data_88519-ICSD
_database_code_ICSD 88519
_audit_creation_date 2001-07-16
_chemical_name_systematic 'nido-Pentaborane(9) - LT'
_chemical_formula_structural 'B5 H9'
_chemical_formula_sum 'H9 B5'
_exptl_crystal_density_diffrn 0.81
_cell_measurement_temperature 120.
_publ_section_title
'The crystal structure of B5 H9 below the 136.7 K phase transition'
loop_
_citation_id
_citation_journal_full
_citation_year
_citation_journal_volume
_citation_page_first
_citation_page_last
_citation_journal_id_ASTM
primary 'Journal of Molecular Structure' 1999 485 299 303 JMOSB4
loop_
_publ_author_name
'Nordman, C.E.'
_cell_length_a 10.201(5)
_cell_length_b 10.201(5)
_cell_length_c 9.996(5)
_cell_angle_alpha 90.
_cell_angle_beta 90.
_cell_angle_gamma 90.
_cell_volume 1040.19
_cell_formula_units_Z 8
_symmetry_space_group_name_H-M 'P 41'
_symmetry_Int_Tables_number 76
_refine_ls_R_factor_all 0.078
loop_
_symmetry_equiv_pos_site_id
_symmetry_equiv_pos_as_xyz
1 'y, -x, z+3/4'
2 '-y, x, z+1/4'
3 '-x, -y, z+1/2'
4 'x, y, z'
loop_
_atom_type_symbol
_atom_type_oxidation_number
B1+ 1.8
H1- -1
B1+ 1.8
H1- -1
loop_
_atom_site_label
_atom_site_type_symbol
_atom_site_symmetry_multiplicity
_atom_site_Wyckoff_symbol
_atom_site_fract_x
_atom_site_fract_y
_atom_site_fract_z
_atom_site_B_iso_or_equiv
_atom_site_occupancy
_atom_site_attached_hydrogens
B1 B1+ 4 a 0.6785(8) 0.1601(8) 0.1089(8) 0.0274(17) 1. 0
B2 B1+ 4 a 0.627(1) 0.2807(10) 0.0008(9) 0.0380(22) 1. 0
B3 B1+ 4 a 0.6431(9) 0.1081(8) -.0450(9) 0.0321(18) 1. 0
B4 B1+ 4 a 0.8028(10) 0.1076(9) 0.0171(10) 0.0354(20) 1. 0
B5 B1+ 4 a 0.7914(10) 0.2803(9) 0.0642(9) 0.0337(21) 1. 0
H1 H1- 4 a 0.647(7) 0.128(6) 0.205(7) 0.0301(21) 1. 0
H2 H1- 4 a 0.517(8) 0.347(8) -.018(9) 0.0418(21) 1. 0
H3 H1- 4 a 0.576(7) 0.045(7) -.090(7) 0.0353(21) 1. 0
H4 H1- 4 a 0.847(9) 0.042(8) 0.031(8) 0.0390(21) 1. 0
H5 H1- 4 a 0.852(7) 0.361(7) 0.147(8) 0.0371(21) 1. 0
H6 H1- 4 a 0.616(7) 0.197(6) 0.890(6) 0.0300(21) 1. 0
H7 H1- 4 a 0.745(7) 0.092(6) 0.892(7) 0.0300(21) 1. 0
H8 H1- 4 a 0.877(7) 0.243(6) -.002(8) 0.0300(21) 1. 0
H9 H1- 4 a 0.726(7) 0.339(7) -.016(7) 0.0300(21) 1. 0
B6 B1+ 4 a 0.2479(8) 0.7372(8) 0.1170(9) 0.0292(16) 1. 0
B7 B1+ 4 a 0.2168(9) 0.8651(8) 0.0164(8) 0.0282(17) 1. 0
B8 B1+ 4 a 0.1918(9) 0.7010(9) -.0411(8) 0.0346(20) 1. 0
B9 B1+ 4 a 0.3559(10) 0.6613(9) 0.0091(9) 0.0324(19) 1. 0
B10 B1+ 4 a 0.3797(7) 0.8248(8) 0.0678(7) 0.0251(17) 1. 0
H10 H1- 4 a 0.216(7) 0.712(7) 0.224(6) 0.0321(17) 1. 0
H11 H1- 4 a 0.154(8) 0.937(7) 0.025(8) 0.0310(17) 1. 0
H12 H1- 4 a 0.118(7) 0.642(7) -.070(8) 0.0381(17) 1. 0
H13 H1- 4 a 0.403(8) 0.594(8) 0.010(8) 0.0357(17) 1. 0
H14 H1- 4 a 0.455(6) 0.869(7) 0.121(7) 0.0276(17) 1. 0
H15 H1- 4 a 0.186(7) 0.813(7) -.088(6) 0.0300(17) 1. 0
H16 H1- 4 a 0.297(7) 0.663(7) 0.899(6) 0.0300(17) 1. 0
H17 H1- 4 a 0.424(7) 0.733(7) -.010(8) 0.0300(17) 1. 0
H18 H1- 4 a 0.324(7) 0.899(7) 0.011(7) 0.0300(17) 1. 0
#End of TTdata_88519-ICSD