#------------------------------------------------------------------------------
#$Date: 2016-02-13 14:28:24 -0500 (Sat, 13 Feb 2016) $
#$Revision: 176429 $
#$URL: svn://www.crystallography.net/cod/cif/1/52/42/1524241.cif $
#------------------------------------------------------------------------------
#
# This file is available in the Crystallography Open Database (COD),
# http://www.crystallography.net/
#
# All data on this site have been placed in the public domain by the
# contributors.
#
data_1524241
loop_
_publ_author_name
'Cywinski, R.'
'Kilcoyne, S.H.'
'Scott, C.A.'
_publ_section_title
;
 Magnetic order and moment stability in Y Mn2
;
_journal_name_full               'Journal of Physics: Condensed Matter'
_journal_page_first              6473
_journal_page_last               6488
_journal_volume                  3
_journal_year                    1991
_chemical_formula_sum            'Mn Y'
_chemical_name_systematic        'Mn2 Y'
_space_group_IT_number           141
_symmetry_space_group_name_Hall  'I 4bw 2bw -1bw'
_symmetry_space_group_name_H-M   'I 41/a m d :1'
_cell_angle_alpha                90
_cell_angle_beta                 90
_cell_angle_gamma                90
_cell_formula_units_Z            8
_cell_length_a                   7.74002
_cell_length_b                   7.74002
_cell_length_c                   7.70009
_cell_volume                     461.296
_citation_journal_id_ASTM        JCOMEL
_cod_data_source_file            Cywinski_JCOMEL_1991_60.cif
_cod_data_source_block           Mn1Y1
_cod_original_cell_volume        461.2963
_cod_original_sg_symbol_Hall     '-I 4bd 2 (x+1/2,y+1/4,z+1/8)'
_cod_original_formula_sum        'Mn1 Y1'
_cod_database_code               1524241
loop_
_symmetry_equiv_pos_as_xyz
x,y,z
-y,x+1/2,z+1/4
-x+1/2,-y+1/2,z+1/2
y+1/2,-x,z+3/4
x,-y+1/2,-z+1/4
y+1/2,x+1/2,-z+1/2
-x+1/2,y,-z+3/4
-y,-x,-z
-x,-y+1/2,-z+1/4
y,-x,-z
x-1/2,y,-z-1/4
-y-1/2,x+1/2,-z-1/2
-x,y,z
-y-1/2,-x,z-1/4
x-1/2,-y+1/2,z-1/2
y,x+1/2,z+1/4
x+1/2,y+1/2,z+1/2
-y+1/2,x+1,z+3/4
-x+1,-y+1,z+1
y+1,-x+1/2,z+5/4
x+1/2,-y+1,-z+3/4
y+1,x+1,-z+1
-x+1,y+1/2,-z+5/4
-y+1/2,-x+1/2,-z+1/2
-x+1/2,-y+1,-z+3/4
y+1/2,-x+1/2,-z+1/2
x,y+1/2,-z+1/4
-y,x+1,-z
-x+1/2,y+1/2,z+1/2
-y,-x+1/2,z+1/4
x,-y+1,z
y+1/2,x+1,z+3/4
loop_
_atom_site_label
_atom_site_type_symbol
_atom_site_fract_x
_atom_site_fract_y
_atom_site_fract_z
_atom_site_occupancy
_atom_site_U_iso_or_equiv
Y1 Y 0 0.25 0.625 1 0.0
Mn1 Mn 0.5 0.25 0.125 1 0.0
