
#(C) 2017 by FIZ Karlsruhe - Leibniz Institute for Information Infrastructure.  All rights reserved.
data_95247-ICSD
_database_code_ICSD 95247
_audit_creation_date 2003-10-01
_chemical_name_systematic 'Nitrogen - in nitrogenated La0.667 Ca0.333 Mn O3'
_chemical_formula_structural N
_chemical_formula_sum N1
_exptl_crystal_density_diffrn 0.7
_publ_section_title 'Effect of nitrogen incorporation in La2/3 Ca1/3 Mn O3'
loop_
_citation_id
_citation_journal_full
_citation_year
_citation_journal_volume
_citation_page_first
_citation_page_last
_citation_journal_id_ASTM
primary 'Journal of Physics: Condensed Matter' 2002 14 181 191 JCOMEL
loop_
_publ_author_name
'Guo, Y.-Q.'
'Roy, S.'
'Ali, N.'
_cell_length_a 3.541(2)
_cell_length_b 4.749(7)
_cell_length_c 7.873(7)
_cell_angle_alpha 90
_cell_angle_beta 90
_cell_angle_gamma 90
_cell_volume 132.39
_cell_formula_units_Z 4
_symmetry_space_group_name_H-M 'P b n m'
_symmetry_Int_Tables_number 62
_refine_ls_R_factor_all 0.059
loop_
_symmetry_equiv_pos_site_id
_symmetry_equiv_pos_as_xyz
1 '-x+1/2, y+1/2, z'
2 'x, y, -z+1/2'
3 'x+1/2, -y+1/2, z+1/2'
4 '-x, -y, -z'
5 'x+1/2, -y+1/2, -z'
6 '-x, -y, z+1/2'
7 '-x+1/2, y+1/2, -z+1/2'
8 'x, y, z'
loop_
_atom_type_symbol
_atom_type_oxidation_number
N0+ 0
loop_
_atom_site_label
_atom_site_type_symbol
_atom_site_symmetry_multiplicity
_atom_site_Wyckoff_symbol
_atom_site_fract_x
_atom_site_fract_y
_atom_site_fract_z
_atom_site_B_iso_or_equiv
_atom_site_occupancy
_atom_site_attached_hydrogens
N1 N0+ 4 c 0.6348(8) 0.0205(8) 0.25 . 1. 0
#End of TTdata_95247-ICSD