#------------------------------------------------------------------------------
#$Date: 2016-02-13 14:28:24 -0500 (Sat, 13 Feb 2016) $
#$Revision: 176429 $
#$URL: svn://www.crystallography.net/cod/cif/1/53/06/1530664.cif $
#------------------------------------------------------------------------------
#
# This file is available in the Crystallography Open Database (COD),
# http://www.crystallography.net/
#
# All data on this site have been placed in the public domain by the
# contributors.
#
data_1530664
loop_
_publ_author_name
'Rusakov, A.A.'
'Kheiker, D.M.'
_publ_section_title
;
 Refinement of the structure of Rb H2 P O4 at room temperature
;
_journal_name_full               Kristallografiya
_journal_page_first              409
_journal_page_last               411
_journal_volume                  23
_journal_year                    1978
_chemical_formula_sum            'H2 O4 P Rb'
_chemical_name_systematic        'Rb (H2 P O4)'
_space_group_IT_number           122
_symmetry_space_group_name_Hall  'I -4 2bw'
_symmetry_space_group_name_H-M   'I -4 2 d'
_cell_angle_alpha                90
_cell_angle_beta                 90
_cell_angle_gamma                90
_cell_formula_units_Z            4
_cell_length_a                   7.616
_cell_length_b                   7.616
_cell_length_c                   7.293
_cell_volume                     423.019
_citation_journal_id_ASTM        KRISAJ
_cod_data_source_file            Rusakov_KRISAJ_1978_311.cif
_cod_data_source_block           H2O4P1Rb1
_cod_original_cell_volume        423.0192
_cod_original_formula_sum        'H2 O4 P1 Rb1'
_cod_database_code               1530664
loop_
_symmetry_equiv_pos_as_xyz
x,y,z
y,-x,-z
-x,-y,z
-y,x,-z
x,-y+1/2,-z+1/4
-y+1/2,-x,z+3/4
-x,y+1/2,-z+1/4
y+1/2,x,z+3/4
x+1/2,y+1/2,z+1/2
y+1/2,-x+1/2,-z+1/2
-x+1/2,-y+1/2,z+1/2
-y+1/2,x+1/2,-z+1/2
x+1/2,-y+1,-z+3/4
-y+1,-x+1/2,z+5/4
-x+1/2,y+1,-z+3/4
y+1,x+1/2,z+5/4
loop_
_atom_site_label
_atom_site_type_symbol
_atom_site_fract_x
_atom_site_fract_y
_atom_site_fract_z
_atom_site_occupancy
_atom_site_U_iso_or_equiv
O1 O-2 0.142 0.0861 0.1215 1 0.0
P1 P+5 0 0 0 1 0.0
Rb1 Rb+1 0 0 0.5 1 0.0
