
#(C) 2018 by FIZ Karlsruhe - Leibniz Institute for Information Infrastructure.  All rights reserved.
data_188336-ICSD
_database_code_ICSD 188336
_audit_creation_date 2014-02-01
_chemical_name_systematic Carbon
_chemical_formula_structural C
_chemical_formula_sum C1
_chemical_name_structure_type (Ca8)xCa2
_exptl_crystal_density_diffrn 3.01
_publ_section_title Isoglitter
loop_
_citation_id
_citation_journal_full
_citation_year
_citation_journal_volume
_citation_page_first
_citation_page_last
_citation_journal_id_ASTM
primary 'Journal of Mathematical Chemistry' 2012 50 2281 2290 JMCHEG
loop_
_publ_author_name
'Bucknum, Michael J.'
'Castro, Eduardo A.'
'Wen, Bin'
_cell_length_a 2.502
_cell_length_b 2.716
_cell_length_c 7.803
_cell_angle_alpha 90.
_cell_angle_beta 90.
_cell_angle_gamma 90.
_cell_volume 53.02
_cell_formula_units_Z 8
_symmetry_space_group_name_H-M 'P 1'
_symmetry_Int_Tables_number 1
loop_
_symmetry_equiv_pos_site_id
_symmetry_equiv_pos_as_xyz
1 'x, y, z'
loop_
_atom_type_symbol
_atom_type_oxidation_number
C0+ 0
loop_
_atom_site_label
_atom_site_type_symbol
_atom_site_symmetry_multiplicity
_atom_site_Wyckoff_symbol
_atom_site_fract_x
_atom_site_fract_y
_atom_site_fract_z
_atom_site_B_iso_or_equiv
_atom_site_occupancy
_atom_site_attached_hydrogens
C1 C0+ 1 a 0 0 0.08585 . 1. 0
C2 C0+ 1 a 0 0.5 0.1891 . 1. 0
C3 C0+ 1 a 0.5 0.5 0.3108 . 1. 0
C4 C0+ 1 a 0.5 0 0.4141 . 1. 0
C5 C0+ 1 a 0.5 0 0.5858 . 1. 0
C6 C0+ 1 a 0.5 0.5 0.6891 . 1. 0
C7 C0+ 1 a 0 0.5 0.8108 . 1. 0
C8 C0+ 1 a 0 0 0.9141 . 1. 0
#End of TTdata_188336-ICSD