
#(C) 2018 by FIZ Karlsruhe - Leibniz Institute for Information Infrastructure.  All rights reserved.
data_92553-ICSD
_database_code_ICSD 92553
_audit_creation_date 2003-04-01
_chemical_name_systematic 'Copper telluride sulfide (2.31/1/0.31)'
_chemical_formula_structural 'Cu2.307 Te S0.314'
_chemical_formula_sum 'Cu2.307 S0.314 Te1'
_exptl_crystal_density_diffrn 6.94
_cell_measurement_temperature 296.
_publ_section_title
'The crystal structure of Cu2.31 Te S0.32 - a condensed cluster compound'
loop_
_citation_id
_citation_journal_full
_citation_year
_citation_journal_volume
_citation_page_first
_citation_page_last
_citation_journal_id_ASTM
primary 'Zeitschrift fuer Kristallographie' 2000 215 475 480 ZEKRDZ
loop_
_publ_author_name
'Makovicky, E.'
'Sotofte, I.'
'Karup-Moller, S.'
_cell_length_a 14.836(4)
_cell_length_b 14.836(4)
_cell_length_c 14.836(4)
_cell_angle_alpha 90
_cell_angle_beta 90
_cell_angle_gamma 90
_cell_volume 3265.51
_cell_formula_units_Z 48
_symmetry_space_group_name_H-M 'F 41 3 2'
_symmetry_Int_Tables_number 210
_refine_ls_R_factor_all 0.044
loop_
_symmetry_equiv_pos_site_id
_symmetry_equiv_pos_as_xyz
1 'z+3/4, y+3/4, -x+1/4'
2 'y+3/4, x+3/4, -z+1/4'
3 'x+3/4, z+3/4, -y+1/4'
4 '-y, -z, x'
5 '-z, -x, y'
6 '-x, -y, z'
7 '-z+1/4, y+3/4, x+3/4'
8 '-y+1/4, x+3/4, z+3/4'
9 '-x+1/4, z+3/4, y+3/4'
10 'y, -z, -x'
11 'z, -x, -y'
12 'x, -y, -z'
13 'z+3/4, -y+1/4, x+3/4'
14 'y+3/4, -x+1/4, z+3/4'
15 'x+3/4, -z+1/4, y+3/4'
16 '-y, z, -x'
17 '-z, x, -y'
18 '-x, y, -z'
19 '-z+1/4, -y+1/4, -x+1/4'
20 '-y+1/4, -x+1/4, -z+1/4'
21 '-x+1/4, -z+1/4, -y+1/4'
22 'y, z, x'
23 'z, x, y'
24 'x, y, z'
25 'z+3/4, y+1/4, -x+3/4'
26 'y+3/4, x+1/4, -z+3/4'
27 'x+3/4, z+1/4, -y+3/4'
28 '-y, -z+1/2, x+1/2'
29 '-z, -x+1/2, y+1/2'
30 '-x, -y+1/2, z+1/2'
31 '-z+1/4, y+1/4, x+1/4'
32 '-y+1/4, x+1/4, z+1/4'
33 '-x+1/4, z+1/4, y+1/4'
34 'y, -z+1/2, -x+1/2'
35 'z, -x+1/2, -y+1/2'
36 'x, -y+1/2, -z+1/2'
37 'z+3/4, -y+3/4, x+1/4'
38 'y+3/4, -x+3/4, z+1/4'
39 'x+3/4, -z+3/4, y+1/4'
40 '-y, z+1/2, -x+1/2'
41 '-z, x+1/2, -y+1/2'
42 '-x, y+1/2, -z+1/2'
43 '-z+1/4, -y+3/4, -x+3/4'
44 '-y+1/4, -x+3/4, -z+3/4'
45 '-x+1/4, -z+3/4, -y+3/4'
46 'y, z+1/2, x+1/2'
47 'z, x+1/2, y+1/2'
48 'x, y+1/2, z+1/2'
49 'z+1/4, y+3/4, -x+3/4'
50 'y+1/4, x+3/4, -z+3/4'
51 'x+1/4, z+3/4, -y+3/4'
52 '-y+1/2, -z, x+1/2'
53 '-z+1/2, -x, y+1/2'
54 '-x+1/2, -y, z+1/2'
55 '-z+3/4, y+3/4, x+1/4'
56 '-y+3/4, x+3/4, z+1/4'
57 '-x+3/4, z+3/4, y+1/4'
58 'y+1/2, -z, -x+1/2'
59 'z+1/2, -x, -y+1/2'
60 'x+1/2, -y, -z+1/2'
61 'z+1/4, -y+1/4, x+1/4'
62 'y+1/4, -x+1/4, z+1/4'
63 'x+1/4, -z+1/4, y+1/4'
64 '-y+1/2, z, -x+1/2'
65 '-z+1/2, x, -y+1/2'
66 '-x+1/2, y, -z+1/2'
67 '-z+3/4, -y+1/4, -x+3/4'
68 '-y+3/4, -x+1/4, -z+3/4'
69 '-x+3/4, -z+1/4, -y+3/4'
70 'y+1/2, z, x+1/2'
71 'z+1/2, x, y+1/2'
72 'x+1/2, y, z+1/2'
73 'z+1/4, y+1/4, -x+1/4'
74 'y+1/4, x+1/4, -z+1/4'
75 'x+1/4, z+1/4, -y+1/4'
76 '-y+1/2, -z+1/2, x'
77 '-z+1/2, -x+1/2, y'
78 '-x+1/2, -y+1/2, z'
79 '-z+3/4, y+1/4, x+3/4'
80 '-y+3/4, x+1/4, z+3/4'
81 '-x+3/4, z+1/4, y+3/4'
82 'y+1/2, -z+1/2, -x'
83 'z+1/2, -x+1/2, -y'
84 'x+1/2, -y+1/2, -z'
85 'z+1/4, -y+3/4, x+3/4'
86 'y+1/4, -x+3/4, z+3/4'
87 'x+1/4, -z+3/4, y+3/4'
88 '-y+1/2, z+1/2, -x'
89 '-z+1/2, x+1/2, -y'
90 '-x+1/2, y+1/2, -z'
91 '-z+3/4, -y+3/4, -x+1/4'
92 '-y+3/4, -x+3/4, -z+1/4'
93 '-x+3/4, -z+3/4, -y+1/4'
94 'y+1/2, z+1/2, x'
95 'z+1/2, x+1/2, y'
96 'x+1/2, y+1/2, z'
loop_
_atom_type_symbol
_atom_type_oxidation_number
Te1- -1.686
Cu0+ 0
Cu1+ 1.013
S1- -1
loop_
_atom_site_label
_atom_site_type_symbol
_atom_site_symmetry_multiplicity
_atom_site_Wyckoff_symbol
_atom_site_fract_x
_atom_site_fract_y
_atom_site_fract_z
_atom_site_B_iso_or_equiv
_atom_site_occupancy
_atom_site_attached_hydrogens
Te1 Te1- 48 g 0.2501(1) 0.0001(1) 0.375 0.0224(1) 1. 0
Cu1 Cu0+ 8 a 0 0 0 0.0367(10) 1. 0
Cu2 Cu0+ 8 b 0.5 0 0 0.0383(12) 1. 0
Cu3 Cu1+ 96 h -0.0016(5) 0.1458(2) 0.4248(2) 0.0370(8) 0.514(6) 0
Cu4 Cu1+ 96 h 0.0018(5) 0.3543(2) 0.4219(2) 0.0260(7) 0.473(6) 0
S1 S1- 32 e 0.0890(6) 0.0890(6) 0.0890(6) 0.044(3) 0.471(21) 0
loop_
_atom_site_aniso_label
_atom_site_aniso_type_symbol
_atom_site_aniso_U_11
_atom_site_aniso_U_22
_atom_site_aniso_U_33
_atom_site_aniso_U_12
_atom_site_aniso_U_13
_atom_site_aniso_U_23
Te1 Te1- 0.0203(1) 0.0203(1) 0.0266(2) -0.0022(8) -0.0014(5) 0.0014(5)
Cu1 Cu0+ 0.0367(10) 0.0367(10) 0.0367(10) 0. 0. 0.
Cu2 Cu0+ 0.0383(12) 0.0383(12) 0.0383(12) 0. 0. 0.
Cu3 Cu1+ 0.0332(13) 0.0343(13) 0.0435(15) 0.0103(21) 0.0118(23) -0.0100(12)
Cu4 Cu1+ 0.0322(15) 0.0289(13) 0.0169(9) 0.0082(22) -0.0005(23) -0.0008(9)
S1 S1- 0.0438(32) 0.0438(32) 0.0438(32) -0.0040(29) -0.0040(29) -0.0040(29)
#End of TTdata_92553-ICSD