
#(C) 2017 by FIZ Karlsruhe - Leibniz Institute for Information Infrastructure.  All rights reserved.
data_170557-ICSD
_database_code_ICSD 170557
_audit_creation_date 2006-04-01
_chemical_name_systematic 'Praseodymium tritelluride'
_chemical_formula_structural 'Pr Te3'
_chemical_formula_sum 'Pr1 Te3'
_chemical_name_structure_type CeTe3
_exptl_crystal_density_diffrn 7.07
_publ_section_title

;
Square nets of tellurium: rare-earth dependent variation in the charge-density
wave of RETe3 (RE = rare-earth element)
;
loop_
_citation_id
_citation_journal_full
_citation_year
_citation_journal_volume
_citation_page_first
_citation_page_last
_citation_journal_id_ASTM
primary 'Journal of the American Chemical Society' 2005 127 6510 6511 JACSAT
loop_
_publ_author_name
'Malliakas, C.'
'Billinge, S.J.L.'
'Kim, H.-J.'
'Kanatzidis, M.G.'
_cell_length_a 4.3566(4)
_cell_length_b 25.888(3)
_cell_length_c 4.3606(5)
_cell_angle_alpha 90.
_cell_angle_beta 90.
_cell_angle_gamma 90.
_cell_volume 491.8
_cell_formula_units_Z 4
_symmetry_space_group_name_H-M 'C 2 c m'
_symmetry_Int_Tables_number 40
_refine_ls_R_factor_all 0.0782
loop_
_symmetry_equiv_pos_site_id
_symmetry_equiv_pos_as_xyz
1 'x, -y, z+1/2'
2 'x, y, -z+1/2'
3 'x, -y, -z'
4 'x, y, z'
5 'x+1/2, -y+1/2, z+1/2'
6 'x+1/2, y+1/2, -z+1/2'
7 'x+1/2, -y+1/2, -z'
8 'x+1/2, y+1/2, z'
loop_
_atom_type_symbol
_atom_type_oxidation_number
Pr0+ 0
Te0+ 0
loop_
_atom_site_label
_atom_site_type_symbol
_atom_site_symmetry_multiplicity
_atom_site_Wyckoff_symbol
_atom_site_fract_x
_atom_site_fract_y
_atom_site_fract_z
_atom_site_B_iso_or_equiv
_atom_site_occupancy
_atom_site_attached_hydrogens
Pr1 Pr0+ 4 b 0.92 0.169099(15) 0.25 0.01210(13) 1 0
Te1 Te0+ 4 b 0.9159(5) 0.295719(19) 0.25 0.01198(14) 1 0
Te2 Te0+ 4 b 0.9225(7) 0.07001(2) 0.75 0.01613(16) 1 0
Te3 Te0+ 4 b 0.9214(5) 0.42973(2) 0.75 0.01547(16) 1 0
loop_
_atom_site_aniso_label
_atom_site_aniso_type_symbol
_atom_site_aniso_U_11
_atom_site_aniso_U_22
_atom_site_aniso_U_33
_atom_site_aniso_U_12
_atom_site_aniso_U_13
_atom_site_aniso_U_23
Pr1 Pr0+ 0.0117(2) 0.0165(2) 0.00809(20) 0.0000(4) 0 0
Te1 Te0+ 0.0114(3) 0.0162(2) 0.0083(2) -0.0012(7) 0 0
Te2 Te0+ 0.0182(3) 0.0194(3) 0.0108(2) -0.0055(6) 0 0
Te3 Te0+ 0.0165(3) 0.0186(3) 0.0113(2) -0.0029(6) 0 0
#End of TTdata_170557-ICSD