
#(C) 2018 by FIZ Karlsruhe - Leibniz Institute for Information Infrastructure.  All rights reserved.
data_429822-ICSD
_database_code_ICSD 429822
_audit_creation_date 2016-08-01
_chemical_name_systematic 'Tungsten iodine (3/9)'
_chemical_formula_structural 'W3 I8 (I2)0.5'
_chemical_formula_sum 'I9 W3'
_exptl_crystal_density_diffrn 6.23
_cell_measurement_temperature 293.
_publ_section_title
'A facile method for the synthesis of binary tungsten iodides'
loop_
_citation_id
_citation_journal_full
_citation_year
_citation_journal_volume
_citation_page_first
_citation_page_last
_citation_journal_id_ASTM
primary 'Angewandte Chemie, International Edition' 2016 55 4814 4817 ACIEF5
loop_
_publ_author_name
'Stroebele, Markus'
'Castro, Cristina'
'Fink, Reinhold F.'
'Meyer, H. Juergen'
_cell_length_a 11.9247(9)
_cell_length_b 11.9247(9)
_cell_length_c 25.380(2)
_cell_angle_alpha 90
_cell_angle_beta 90
_cell_angle_gamma 90
_cell_volume 3608.99
_cell_formula_units_Z 8
_symmetry_space_group_name_H-M 'P 41 21 2'
_symmetry_Int_Tables_number 92
_refine_ls_R_factor_all 0.0362
loop_
_symmetry_equiv_pos_site_id
_symmetry_equiv_pos_as_xyz
1 'x+1/2, -y+1/2, -z+3/4'
2 '-x+1/2, y+1/2, -z+1/4'
3 '-y, -x, -z+1/2'
4 'y, x, -z'
5 'y+1/2, -x+1/2, z+3/4'
6 '-y+1/2, x+1/2, z+1/4'
7 '-x, -y, z+1/2'
8 'x, y, z'
loop_
_atom_type_symbol
_atom_type_oxidation_number
W0+ 0
I0+ 0
loop_
_atom_site_label
_atom_site_type_symbol
_atom_site_symmetry_multiplicity
_atom_site_Wyckoff_symbol
_atom_site_fract_x
_atom_site_fract_y
_atom_site_fract_z
_atom_site_B_iso_or_equiv
_atom_site_occupancy
_atom_site_attached_hydrogens
W1 W0+ 8 b 0.32376(6) 0.27943(5) 0.26025(3) 0.0429(2) 1 0
W2 W0+ 8 b 0.32347(6) 0.07145(5) 0.25991(3) 0.0442(2) 1 0
W3 W0+ 8 b 0.33622(5) 0.17482(5) 0.17672(3) 0.0518(2) 1 0
I1 I0+ 8 b 0.15212(10) 0.17312(10) 0.31426(6) 0.0640(4) 1 0
I2 I0+ 8 b 0.17156(12) 0.01318(10) 0.18241(6) 0.0685(4) 1 0
I3 I0+ 8 b 0.17186(10) 0.33571(10) 0.18278(6) 0.0688(4) 1 0
I4 I0+ 8 b 0.48009(10) 0.17236(11) 0.32316(6) 0.0603(3) 1 0
I5 I0+ 8 b 0.49545(11) 0.01041(11) 0.19439(6) 0.0604(3) 1 0
I6 I0+ 8 b 0.49571(11) 0.33810(12) 0.19159(6) 0.0659(4) 1 0
I7 I0+ 8 b 0.31809(13) 0.47914(12) 0.31449(7) 0.0768(4) 1 0
I8 I0+ 8 b 0.32520(10) -0.14448(8) 0.31273(5) 0.0514(3) 1 0
I9 I0+ 8 b 0.64358(17) 0.68076(18) 0.05515(9) 0.1021(6) 1 0
loop_
_atom_site_aniso_label
_atom_site_aniso_type_symbol
_atom_site_aniso_U_11
_atom_site_aniso_U_22
_atom_site_aniso_U_33
_atom_site_aniso_U_12
_atom_site_aniso_U_13
_atom_site_aniso_U_23
W1 W0+ 0.0340(3) 0.0331(3) 0.0614(4) -0.0020(2) 0.0029(3) -0.0065(3)
W2 W0+ 0.0340(3) 0.0286(3) 0.0700(4) 0.0000(3) -0.0056(3) 0.0055(3)
W3 W0+ 0.0359(3) 0.0277(3) 0.0918(5) -0.0008(3) -0.0131(3) -0.0071(3)
I1 I0+ 0.0526(6) 0.0426(6) 0.0968(10) 0.0041(5) 0.0166(6) -0.0037(6)
I2 I0+ 0.0576(7) 0.0400(6) 0.1078(10) -0.0233(6) -0.0162(8) -0.0127(6)
I3 I0+ 0.0444(6) 0.0467(6) 0.1152(10) 0.0084(6) -0.0169(7) -0.0035(7)
I4 I0+ 0.0417(6) 0.0534(6) 0.0857(8) 0.0005(5) -0.0085(5) 0.0136(7)
I5 I0+ 0.0495(7) 0.0486(7) 0.0831(8) 0.0212(5) -0.0087(6) -0.0069(6)
I6 I0+ 0.0537(7) 0.0476(7) 0.0964(9) -0.0074(5) -0.0115(6) -0.0196(7)
I7 I0+ 0.0590(8) 0.0532(7) 0.1182(12) -0.0080(6) 0.0054(9) -0.0180(7)
I8 I0+ 0.0415(5) 0.0350(5) 0.0778(7) 0.0025(4) -0.0011(6) -0.0033(4)
I9 I0+ 0.0993(13) 0.0851(12) 0.1219(15) 0.0031(11) -0.0070(11) -0.0018(11)
#End of TTdata_429822-ICSD