
#(C) 2018 by FIZ Karlsruhe - Leibniz Institute for Information Infrastructure.  All rights reserved.
data_24719-ICSD
_database_code_ICSD 24719
_audit_creation_date 1980-01-01
_chemical_name_systematic 'Rhodium silicide (1/1)'
_chemical_formula_structural 'Rh Si'
_chemical_formula_sum 'Rh1 Si1'
_chemical_name_structure_type Fersilicite-FeSi
_exptl_crystal_density_diffrn 8.4
_publ_section_title 'The Crystal Structure of Rhodium Silicide, Rh Si'
loop_
_citation_id
_citation_journal_full
_citation_year
_citation_journal_volume
_citation_page_first
_citation_page_last
_citation_journal_id_ASTM
primary 'Acta Crystallographica' 1954 7 441 443 ACCRA9
loop_
_publ_author_name
'Geller, S.'
'Wood, E.A.'
_cell_length_a 4.675(1)
_cell_length_b 4.675(1)
_cell_length_c 4.675(1)
_cell_angle_alpha 90.
_cell_angle_beta 90.
_cell_angle_gamma 90.
_cell_volume 102.18
_cell_formula_units_Z 4
_symmetry_space_group_name_H-M 'P 21 3'
_symmetry_Int_Tables_number 198
_refine_ls_R_factor_all 0.11
loop_
_symmetry_equiv_pos_site_id
_symmetry_equiv_pos_as_xyz
1 '-z+1/2, -x, y+1/2'
2 '-y+1/2, -z, x+1/2'
3 '-x+1/2, -y, z+1/2'
4 '-z, x+1/2, -y+1/2'
5 '-y, z+1/2, -x+1/2'
6 '-x, y+1/2, -z+1/2'
7 'z+1/2, -x+1/2, -y'
8 'y+1/2, -z+1/2, -x'
9 'x+1/2, -y+1/2, -z'
10 'z, x, y'
11 'y, z, x'
12 'x, y, z'
loop_
_atom_type_symbol
_atom_type_oxidation_number
Rh0+ 0
Si0+ 0
loop_
_atom_site_label
_atom_site_type_symbol
_atom_site_symmetry_multiplicity
_atom_site_Wyckoff_symbol
_atom_site_fract_x
_atom_site_fract_y
_atom_site_fract_z
_atom_site_B_iso_or_equiv
_atom_site_occupancy
_atom_site_attached_hydrogens
Rh1 Rh0+ 4 a 0.144(3) 0.144(3) 0.144(3) 0.83 1. 0
Si1 Si0+ 4 a 0.840(7) 0.840(7) 0.840(7) 0.83 1. 0
#End of TTdata_24719-ICSD