
#(C) 2017 by FIZ Karlsruhe - Leibniz Institute for Information Infrastructure.  All rights reserved.
data_52521-ICSD
_database_code_ICSD 52521
_audit_creation_date 2003-04-01
_chemical_name_systematic 'Titanium - HP, omega'
_chemical_formula_structural Ti
_chemical_formula_sum Ti1
_chemical_name_structure_type CaHg2
_exptl_crystal_density_diffrn 4.62
_cell_measurement_pressure 4000000.
_publ_section_title

;
Observation of omega-titanium in a composite hard facing alloy based on
fine-grain diamonds
;
loop_
_citation_id
_citation_journal_full
_citation_year
_citation_journal_volume
_citation_page_first
_citation_page_last
_citation_journal_id_ASTM
primary 'Fizika Metallov i Metallovedenie' 1973 36 200 202 FMMTAK
loop_
_publ_author_name
'Chebotareva, E.S.'
'Nuzhdina, S.G.'
_cell_length_a 4.6
_cell_length_b 4.6
_cell_length_c 2.82
_cell_angle_alpha 90.
_cell_angle_beta 90.
_cell_angle_gamma 120.
_cell_volume 51.68
_cell_formula_units_Z 3
_symmetry_space_group_name_H-M 'P 6/m m m'
_symmetry_Int_Tables_number 191
loop_
_symmetry_equiv_pos_site_id
_symmetry_equiv_pos_as_xyz
1 '-x, -x+y, -z'
2 'x-y, -y, -z'
3 'y, x, -z'
4 '-x+y, -x, -z'
5 '-y, x-y, -z'
6 'x, y, -z'
7 'x, x-y, -z'
8 '-x+y, y, -z'
9 '-y, -x, -z'
10 'x-y, x, -z'
11 'y, -x+y, -z'
12 '-x, -y, -z'
13 'x, x-y, z'
14 '-x+y, y, z'
15 '-y, -x, z'
16 'x-y, x, z'
17 'y, -x+y, z'
18 '-x, -y, z'
19 '-x, -x+y, z'
20 'x-y, -y, z'
21 'y, x, z'
22 '-x+y, -x, z'
23 '-y, x-y, z'
24 'x, y, z'
loop_
_atom_type_symbol
_atom_type_oxidation_number
Ti0+ 0
loop_
_atom_site_label
_atom_site_type_symbol
_atom_site_symmetry_multiplicity
_atom_site_Wyckoff_symbol
_atom_site_fract_x
_atom_site_fract_y
_atom_site_fract_z
_atom_site_B_iso_or_equiv
_atom_site_occupancy
_atom_site_attached_hydrogens
Ti1 Ti0+ 1 a 0 0 0 . 1. 0
Ti2 Ti0+ 2 d 0.3333 0.6667 0.5 . 1. 0
#End of TTdata_52521-ICSD