
#(C) 2017 by FIZ Karlsruhe - Leibniz Institute for Information Infrastructure.  All rights reserved.
data_406793-ICSD
_database_code_ICSD 406793
_audit_creation_date 2008-02-01
_chemical_name_systematic 'Phosphorus - white'
_chemical_formula_structural P4
_chemical_formula_sum P4
_exptl_crystal_density_diffrn 1.98
_cell_measurement_temperature 88.
_publ_section_title 'On the polymorphism of white phosphorus'
loop_
_citation_id
_citation_journal_full
_citation_year
_citation_journal_volume
_citation_page_first
_citation_page_last
_citation_journal_id_ASTM
primary 'Chem. Ber./Recueil' 1997 130 1235 1240 CHBRFW
loop_
_publ_author_name
'Simon, A.'
'Borrmann, H.'
'Horakh, J.'
_cell_length_a 5.4788(5)
_cell_length_b 10.7862(11)
_cell_length_c 10.9616(11)
_cell_angle_alpha 94.285(8)
_cell_angle_beta 99.653(7)
_cell_angle_gamma 100.680(7)
_cell_volume 623.79
_cell_formula_units_Z 6
_symmetry_space_group_name_H-M 'P -1'
_symmetry_Int_Tables_number 2
_refine_ls_R_factor_all 0.0242
loop_
_symmetry_equiv_pos_site_id
_symmetry_equiv_pos_as_xyz
1 '-x, -y, -z'
2 'x, y, z'
loop_
_atom_type_symbol
_atom_type_oxidation_number
P0+ 0
loop_
_atom_site_label
_atom_site_type_symbol
_atom_site_symmetry_multiplicity
_atom_site_Wyckoff_symbol
_atom_site_fract_x
_atom_site_fract_y
_atom_site_fract_z
_atom_site_B_iso_or_equiv
_atom_site_occupancy
_atom_site_attached_hydrogens
P1 P0+ 2 i 0.07292(6) 0.00036(3) 0.17674(3) 0.02695(6) 1 0
P2 P0+ 2 i -0.16832(6) -0.05448(3) 0.31113(3) 0.02649(6) 1 0
P3 P0+ 2 i 0.00612(7) 0.14473(3) 0.31184(3) 0.02717(6) 1 0
P4 P0+ 2 i 0.23909(6) 0.01003(3) 0.37323(3) 0.02575(6) 1 0
P5 P0+ 2 i 0.78223(6) 0.37474(3) 0.05849(3) 0.02570(6) 1 0
P6 P0+ 2 i 0.59210(6) 0.17605(3) 0.03117(3) 0.02728(6) 1 0
P7 P0+ 2 i 0.51082(7) 0.30715(4) 0.17458(3) 0.02961(7) 1 0
P8 P0+ 2 i 0.37938(6) 0.32142(3) -0.02200(3) 0.02701(6) 1 0
P9 P0+ 2 i 0.31104(6) 0.68864(3) 0.47249(3) 0.02563(6) 1 0
P10 P0+ 2 i -0.07263(5) 0.62577(3) 0.36581(3) 0.02510(6) 1 0
P11 P0+ 2 i 0.20456(6) 0.50517(3) 0.35888(3) 0.02519(6) 1 0
P12 P0+ 2 i 0.24277(6) 0.68078(3) 0.26975(3) 0.02539(6) 1 0
loop_
_atom_site_aniso_label
_atom_site_aniso_type_symbol
_atom_site_aniso_U_11
_atom_site_aniso_U_22
_atom_site_aniso_U_33
_atom_site_aniso_U_12
_atom_site_aniso_U_13
_atom_site_aniso_U_23
P1 P0+ 0.03199(15) 0.03179(14) 0.01670(11) 0.00497(11) 0.00675(10) -0.00120(10)
P2 P0+ 0.01795(11) 0.02562(13) 0.03329(15) -0.00351(9) 0.00785(10) -0.00060(11)
P3 P0+ 0.03338(15) 0.01779(11) 0.03228(15) 0.00982(10) 0.00680(12) 0.00184(10)
P4 P0+ 0.01873(12) 0.03222(14) 0.02460(13) 0.00785(10) -0.00381(9) 0.00315(10)
P5 P0+ 0.01859(11) 0.02439(13) 0.03187(14) -0.00270(9) 0.00667(10) 0.00181(10)
P6 P0+ 0.03192(15) 0.01649(11) 0.03241(15) 0.00768(10) 0.00157(11) -0.00108(10)
P7 P0+ 0.03119(15) 0.0395(2) 0.02044(12) 0.00708(12) 0.01175(11) 0.00256(11)
P8 P0+ 0.02296(13) 0.03028(14) 0.02636(13) 0.01106(11) -0.00443(10) -0.00006(10)
P9 P0+ 0.02548(13) 0.02689(13) 0.01845(11) -0.00153(10) -0.00283(9) -0.00379(9)
P10 P0+ 0.01466(11) 0.03204(14) 0.02940(14) 0.00576(10) 0.00427(9) 0.00541(11)
P11 P0+ 0.03052(14) 0.01698(11) 0.02938(14) 0.00756(10) 0.00638(11) 0.00198(9)
P12 P0+ 0.03092(14) 0.02723(13) 0.02024(12) 0.00440(11) 0.01033(10) 0.00772(10)
#End of TTdata_406793-ICSD