
#(C) 2017 by FIZ Karlsruhe - Leibniz Institute for Information Infrastructure.  All rights reserved.
data_97742-ICSD
_database_code_ICSD 97742
_audit_creation_date 2004-10-01
_chemical_name_systematic 'Tellurium - III'
_chemical_formula_structural Te
_chemical_formula_sum Te1
_chemical_name_structure_type Sb2Te3
_exptl_crystal_density_diffrn 8.
_cell_measurement_pressure 8000000.
_publ_section_title
'X-ray structural analysis of the high-pressure phase III of tellurium'
loop_
_citation_id
_citation_journal_full
_citation_year
_citation_journal_volume
_citation_page_first
_citation_page_last
_citation_journal_id_ASTM
primary 'Journal of Physics: Condensed Matter' 2002 14 10609 10613 JCOMEL
loop_
_publ_author_name
'Takumi, M.'
'Masamitsu, T.'
'Nagata, K.'
_cell_length_a 8.4682(14)
_cell_length_b 4.7424(8)
_cell_length_c 3.9595(7)
_cell_angle_alpha 90
_cell_angle_beta 88.112(11)
_cell_angle_gamma 90
_cell_volume 158.93
_cell_formula_units_Z 6
_symmetry_space_group_name_H-M 'C 1 2/m 1'
_symmetry_Int_Tables_number 12
_refine_ls_R_factor_all 0.15
loop_
_symmetry_equiv_pos_site_id
_symmetry_equiv_pos_as_xyz
1 '-x, y, -z'
2 '-x, -y, -z'
3 'x, -y, z'
4 'x, y, z'
5 '-x+1/2, y+1/2, -z'
6 '-x+1/2, -y+1/2, -z'
7 'x+1/2, -y+1/2, z'
8 'x+1/2, y+1/2, z'
loop_
_atom_type_symbol
_atom_type_oxidation_number
Te0+ 0
loop_
_atom_site_label
_atom_site_type_symbol
_atom_site_symmetry_multiplicity
_atom_site_Wyckoff_symbol
_atom_site_fract_x
_atom_site_fract_y
_atom_site_fract_z
_atom_site_B_iso_or_equiv
_atom_site_occupancy
_atom_site_attached_hydrogens
Te1 Te0+ 2 a 0 0 0 2.6(15) 1. 0
Te2 Te0+ 4 i 0.324(11) 0 0.675(3) 2.2(8) 1. 0
#End of TTdata_97742-ICSD