
#(C) 2017 by FIZ Karlsruhe - Leibniz Institute for Information Infrastructure.  All rights reserved.
data_109013-ICSD
_database_code_ICSD 109013
_audit_creation_date 2007-04-01
_chemical_name_systematic 'Rubidium - III, HP'
_chemical_formula_structural Rb
_chemical_formula_sum Rb1
_exptl_crystal_density_diffrn 4.52
_cell_measurement_pressure 14300000.
_publ_section_title
'Structure of RB-III: Novel modulated stacking structures in alkali metals'
loop_
_citation_id
_citation_journal_full
_citation_year
_citation_journal_volume
_citation_page_first
_citation_page_last
_citation_journal_id_ASTM
primary 'Physical Review Letters' 2002 88 15501 15504 PRLTAO
loop_
_publ_author_name
'Nelmes, R.J.'
'McMahon, M.I.'
'Loveday, J.S.'
'Rekhi, S.'
_cell_length_a 7.886(2)
_cell_length_b 11.240(2)
_cell_length_c 18.431(2)
_cell_angle_alpha 90.
_cell_angle_beta 90.
_cell_angle_gamma 90.
_cell_volume 1633.7
_cell_formula_units_Z 52
_symmetry_space_group_name_H-M 'C 2 2 21'
_symmetry_Int_Tables_number 20
loop_
_symmetry_equiv_pos_site_id
_symmetry_equiv_pos_as_xyz
1 '-x, y, -z+1/2'
2 '-x, -y, z+1/2'
3 'x, -y, -z'
4 'x, y, z'
5 '-x+1/2, y+1/2, -z+1/2'
6 '-x+1/2, -y+1/2, z+1/2'
7 'x+1/2, -y+1/2, -z'
8 'x+1/2, y+1/2, z'
loop_
_atom_type_symbol
_atom_type_oxidation_number
Rb0+ 0
loop_
_atom_site_label
_atom_site_type_symbol
_atom_site_symmetry_multiplicity
_atom_site_Wyckoff_symbol
_atom_site_fract_x
_atom_site_fract_y
_atom_site_fract_z
_atom_site_B_iso_or_equiv
_atom_site_occupancy
_atom_site_attached_hydrogens
Rb1 Rb0+ 4 b 0 0.075(2) 0.25 . 1. 0
Rb2 Rb0+ 8 c 0.196(3) 0.355(2) 0.2699(6) . 1. 0
Rb3 Rb0+ 8 c 0.122(3) 0.627(2) 0.3186(7) . 1. 0
Rb4 Rb0+ 8 c 0.987(2) 0.420(1) 0.4287(6) . 1. 0
Rb5 Rb0+ 8 c 0.581(2) 0.393(2) 0.3871(6) . 1. 0
Rb6 Rb0+ 8 c 0.360(2) 0.6308(9) 0.4639(8) . 1. 0
Rb7 Rb0+ 8 c 0.744(3) 0.675(2) 0.4139(8) . 1. 0
#End of TTdata_109013-ICSD