
#(C) 2018 by FIZ Karlsruhe - Leibniz Institute for Information Infrastructure.  All rights reserved.
data_84461-ICSD
_database_code_ICSD 84461
_audit_creation_date 1999-01-19
_chemical_name_systematic Ammonia
_chemical_formula_structural 'N H3'
_chemical_formula_sum 'H3 N1'
_chemical_name_structure_type NH3
_exptl_crystal_density_diffrn 0.84
_cell_measurement_temperature 160.
_publ_section_title

;
Single-crystal structure and electron density distribution of ammonia at 160 K
on the basis of X-ray diffraction data
;
loop_
_citation_id
_citation_journal_full
_citation_year
_citation_journal_volume
_citation_page_first
_citation_page_last
_citation_journal_id_ASTM
primary 'Journal of Physical Chemistry' 1997 101 5794 5799 JPCHAX
loop_
_publ_author_name
'Boese, R.'
'Niederpruem, N.'
'Blaeser, D.'
'Maulitz, A.H.'
'Antipin, M.Yu.'
'Mallinson, P.R.'
_cell_length_a 5.1305(8)
_cell_length_b 5.1305(8)
_cell_length_c 5.1305(8)
_cell_angle_alpha 90.
_cell_angle_beta 90.
_cell_angle_gamma 90.
_cell_volume 135.05
_cell_formula_units_Z 4
_symmetry_space_group_name_H-M 'P 21 3'
_symmetry_Int_Tables_number 198
_refine_ls_R_factor_all 0.012
loop_
_symmetry_equiv_pos_site_id
_symmetry_equiv_pos_as_xyz
1 '-z+1/2, -x, y+1/2'
2 '-y+1/2, -z, x+1/2'
3 '-x+1/2, -y, z+1/2'
4 '-z, x+1/2, -y+1/2'
5 '-y, z+1/2, -x+1/2'
6 '-x, y+1/2, -z+1/2'
7 'z+1/2, -x+1/2, -y'
8 'y+1/2, -z+1/2, -x'
9 'x+1/2, -y+1/2, -z'
10 'z, x, y'
11 'y, z, x'
12 'x, y, z'
loop_
_atom_type_symbol
_atom_type_oxidation_number
N3- -3
H1+ 1
loop_
_atom_site_label
_atom_site_type_symbol
_atom_site_symmetry_multiplicity
_atom_site_Wyckoff_symbol
_atom_site_fract_x
_atom_site_fract_y
_atom_site_fract_z
_atom_site_B_iso_or_equiv
_atom_site_occupancy
_atom_site_attached_hydrogens
N1 N3- 4 a 0.2103(1) 0.2103(1) 0.2103(1) . 1. 0
H1 H1+ 12 b 0.3722 0.2627 0.1113 0.053 1. 0
loop_
_atom_site_aniso_label
_atom_site_aniso_type_symbol
_atom_site_aniso_U_11
_atom_site_aniso_U_22
_atom_site_aniso_U_33
_atom_site_aniso_U_12
_atom_site_aniso_U_13
_atom_site_aniso_U_23
N1 N3- 0.0372(2) 0.0372(2) 0.0372(2) -.0009(1) -.0009(1) -.0009(1)
#End of TTdata_84461-ICSD