
#(C) 2017 by FIZ Karlsruhe - Leibniz Institute for Information Infrastructure.  All rights reserved.
data_240087-ICSD
_database_code_ICSD 240087
_audit_creation_date 2004-10-01
_chemical_name_systematic 'Aluminium copper (9/11.5)'
_chemical_formula_structural 'Al9 Cu11.5'
_chemical_formula_sum 'Al9 Cu11.5'
_exptl_crystal_density_diffrn 5.62
_publ_section_title 'The crystal structure of zeta-Al3 Cu (4-delta)'
loop_
_citation_id
_citation_journal_full
_citation_year
_citation_journal_volume
_citation_page_first
_citation_page_last
_citation_journal_id_ASTM
primary 'Zeitschrift fuer Anorganische und Allgemeine Chemie (1950) (DE)' 2003
629 463 466 ZAACAB
loop_
_publ_author_name
'Gulay, L.D.'
'Harbrecht, B.'
_cell_length_a 4.0972(1)
_cell_length_b 7.0313(2)
_cell_length_c 9.9793(3)
_cell_angle_alpha 90
_cell_angle_beta 90
_cell_angle_gamma 90
_cell_volume 287.49
_cell_formula_units_Z 1
_symmetry_space_group_name_H-M 'I m m 2'
_symmetry_Int_Tables_number 44
_refine_ls_R_factor_all 0.0696
loop_
_symmetry_equiv_pos_site_id
_symmetry_equiv_pos_as_xyz
1 'x, -y, z'
2 '-x, y, z'
3 '-x, -y, z'
4 'x, y, z'
5 'x+1/2, -y+1/2, z+1/2'
6 '-x+1/2, y+1/2, z+1/2'
7 '-x+1/2, -y+1/2, z+1/2'
8 'x+1/2, y+1/2, z+1/2'
loop_
_atom_type_symbol
_atom_type_oxidation_number
Cu0+ 0
Al0+ 0
loop_
_atom_site_label
_atom_site_type_symbol
_atom_site_symmetry_multiplicity
_atom_site_Wyckoff_symbol
_atom_site_fract_x
_atom_site_fract_y
_atom_site_fract_z
_atom_site_B_iso_or_equiv
_atom_site_occupancy
_atom_site_attached_hydrogens
Cu1 Cu0+ 2 a 0 0 0 0.5(1) 0.449(2) 0
Cu2 Cu0+ 2 a 0 0 0.5185(3) 0.99(6) 1. 0
Cu3 Cu0+ 2 a 0 0 0.7488(2) 1.25(7) 1. 0
Cu4 Cu0+ 2 a 0 0 0.2386(2) 1.02(7) 1. 0
Cu5 Cu0+ 4 d 0.5 0.1232(4) 0.3964(4) 1.7(1) 0.403(2) 0
Cu6 Cu0+ 4 d 0.5 0.1802(2) 0.8832(3) 1.88(5) 0.752(3) 0
Al1 Al0+ 4 d 0.5 0.1802(2) 0.8832(3) 1.88(5) 0.248(3) 0
Al2 Al0+ 4 d 0.5 0.1592(4) 0.6171(3) 1.12(9) 1. 0
Al3 Al0+ 4 d 0.5 0.1787(3) 0.1340(4) 1.33(9) 1. 0
#End of TTdata_240087-ICSD