
#(C) 2018 by FIZ Karlsruhe - Leibniz Institute for Information Infrastructure.  All rights reserved.
data_37009-ICSD
_database_code_ICSD 37009
_audit_creation_date 1983-12-31
_chemical_name_systematic 'Gold(III) bis(selenate(IV)) oxide'
_chemical_formula_structural 'Au2 (Se O3)2 O'
_chemical_formula_sum 'Au2 O7 Se2'
_exptl_crystal_density_diffrn 7.07
_publ_section_title

;
Darstellung und Kristallstruktur von Di-gold(III)bis(selenit)oxid, Au2 (Se
O3)2 O
;
loop_
_citation_id
_citation_journal_full
_citation_year
_citation_journal_volume
_citation_page_first
_citation_page_last
_citation_journal_id_ASTM
primary

;
Zeitschrift fuer Naturforschung, Teil B: Anorganische Chemie, Organische
Chemie
; 1983 38 10 11 ZNBAD2
loop_
_publ_author_name
'Jones, P.G.'
'Sheldrick, G.M.'
'Schwarzmann, E.'
'Vielmaeder, A.'
_cell_length_a 6.592(2)
_cell_length_b 11.837(3)
_cell_length_c 3.998(1)
_cell_angle_alpha 90.
_cell_angle_beta 90.
_cell_angle_gamma 90.
_cell_volume 311.96
_cell_formula_units_Z 2
_symmetry_space_group_name_H-M 'P b a 2'
_symmetry_Int_Tables_number 32
_refine_ls_R_factor_all 0.087
loop_
_symmetry_equiv_pos_site_id
_symmetry_equiv_pos_as_xyz
1 'x+1/2, -y+1/2, z'
2 '-x+1/2, y+1/2, z'
3 '-x, -y, z'
4 'x, y, z'
loop_
_atom_type_symbol
_atom_type_oxidation_number
Au3+ 3
Se4+ 4
O2- -2
loop_
_atom_site_label
_atom_site_type_symbol
_atom_site_symmetry_multiplicity
_atom_site_Wyckoff_symbol
_atom_site_fract_x
_atom_site_fract_y
_atom_site_fract_z
_atom_site_B_iso_or_equiv
_atom_site_occupancy
_atom_site_attached_hydrogens
Au1 Au3+ 4 c 0.2005(3) 0.0680(2) 0.5 . 1. 0
Se1 Se4+ 4 c 0.1341(10) 0.3268(6) 0.2597(21) . 1. 0
O1 O2- 4 c 0.3367(62) -.0869(41) 0.5615(93) 0.036(8) 1. 0
O2 O2- 4 c 0.0585(65) 0.2144(41) 0.4385(93) 0.036(8) 1. 0
O3 O2- 4 c 0.3988(77) 0.1329(48) 0.151(10) 0.036(8) 1. 0
O4 O2- 2 a 0 0 0.849(10) 0.036(8) 1. 0
loop_
_atom_site_aniso_label
_atom_site_aniso_type_symbol
_atom_site_aniso_U_11
_atom_site_aniso_U_22
_atom_site_aniso_U_33
_atom_site_aniso_U_12
_atom_site_aniso_U_13
_atom_site_aniso_U_23
Au1 Au3+ 0.0109(9) 0.0048(9) 0.0178(10) -.0012(10) -.0072(23) 0.0079(23)
Se1 Se4+ 0.0204(32) 0.0096(33) 0.0203(30) 0.0027(27) 0.0010(31) 0.0010(34)
#End of TTdata_37009-ICSD