
#(C) 2018 by FIZ Karlsruhe - Leibniz Institute for Information Infrastructure.  All rights reserved.
data_391323-ICSD
_database_code_ICSD 391323
_audit_creation_date 2007-08-01
_chemical_name_systematic 'Phosphorus - aP42'
_chemical_formula_structural P21
_chemical_formula_sum P21
_exptl_crystal_density_diffrn 2.37
_publ_section_title 'Faserfoermiger roter Phosphor'
loop_
_citation_id
_citation_journal_full
_citation_year
_citation_journal_volume
_citation_page_first
_citation_page_last
_citation_journal_id_ASTM
primary 'Angewandte Chemie' 2005 117 7788 7792 ANCEAD
loop_
_publ_author_name
'Ruck, M.'
'Hoppe, D.'
'Wahl, B.'
'Simon, P.'
'Wang Yuekui'
'Seifert, G.'
_cell_length_a 12.198(8)
_cell_length_b 12.986(8)
_cell_length_c 7.075(7)
_cell_angle_alpha 116.99(7)
_cell_angle_beta 106.31(7)
_cell_angle_gamma 97.91(7)
_cell_volume 911.25
_cell_formula_units_Z 2
_symmetry_space_group_name_H-M 'P -1'
_symmetry_Int_Tables_number 2
_refine_ls_R_factor_all 0.028
loop_
_symmetry_equiv_pos_site_id
_symmetry_equiv_pos_as_xyz
1 '-x, -y, -z'
2 'x, y, z'
loop_
_atom_type_symbol
_atom_type_oxidation_number
P0+ 0
loop_
_atom_site_label
_atom_site_type_symbol
_atom_site_symmetry_multiplicity
_atom_site_Wyckoff_symbol
_atom_site_fract_x
_atom_site_fract_y
_atom_site_fract_z
_atom_site_B_iso_or_equiv
_atom_site_occupancy
_atom_site_attached_hydrogens
P1 P0+ 2 i 0.1515(5) 0.3308(4) -0.2531(10) 0.0259(14) 1 0
P2 P0+ 2 i 0.2754(6) 0.4729(5) -0.2516(9) 0.0262(15) 1 0
P3 P0+ 2 i 0.1510(5) 0.5801(4) -0.2579(10) 0.0268(15) 1 0
P4 P0+ 2 i 0.2796(5) 0.7243(5) -0.2401(10) 0.0226(14) 1 0
P5 P0+ 2 i 0.1603(5) -0.1640(4) -0.2606(9) 0.0262(14) 1 0
P6 P0+ 2 i 0.2876(6) -0.0284(5) -0.2627(10) 0.0304(16) 1 0
P7 P0+ 2 i 0.1578(5) 0.0728(4) -0.2662(9) 0.0272(14) 1 0
P8 P0+ 2 i 0.2777(6) 0.2260(5) -0.2414(10) 0.0272(15) 1 0
P9 P0+ 2 i 0.3550(6) 0.4924(4) 0.2919(10) 0.0280(16) 1 0
P10 P0+ 2 i 0.4123(6) 0.5813(5) 0.1185(10) 0.0279(15) 1 0
P11 P0+ 2 i 0.3533(5) 0.7410(4) 0.2913(9) 0.0233(15) 1 0
P12 P0+ 2 i 0.4152(5) 0.8318(4) 0.1267(9) 0.0245(15) 1 0
P13 P0+ 2 i 0.3636(5) -0.0037(5) 0.2839(10) 0.0259(15) 1 0
P14 P0+ 2 i 0.4255(6) 0.0825(5) 0.1086(10) 0.0272(15) 1 0
P15 P0+ 2 i 0.3598(5) 0.2365(5) 0.2835(9) 0.0259(15) 1 0
P16 P0+ 2 i 0.4144(5) 0.3352(4) 0.1270(9) 0.0222(14) 1 0
P17 P0+ 2 i 0.1587(6) 0.4055(5) 0.1012(10) 0.0344(15) 1 0
P18 P0+ 2 i 0.1572(6) 0.6844(5) 0.0973(10) 0.0312(14) 1 0
P19 P0+ 2 i 0.1695(5) -0.0460(4) 0.0915(8) 0.0319(13) 1 0
P20 P0+ 2 i 0.1655(5) 0.1310(4) 0.0890(8) 0.0307(12) 1 0
P21 P0+ 2 i 0.0765(3) 0.5517(3) 0.1705(6) 0.0306(9) 1 0
loop_
_atom_site_aniso_label
_atom_site_aniso_type_symbol
_atom_site_aniso_U_11
_atom_site_aniso_U_22
_atom_site_aniso_U_33
_atom_site_aniso_U_12
_atom_site_aniso_U_13
_atom_site_aniso_U_23
P1 P0+ 0.026(4) 0.021(3) 0.032(4) 0.008(2) 0.011(3) 0.014(3)
P2 P0+ 0.029(4) 0.025(3) 0.013(3) 0.005(3) 0.000(3) 0.007(3)
P3 P0+ 0.023(4) 0.026(3) 0.033(4) 0.006(3) 0.009(3) 0.018(3)
P4 P0+ 0.022(4) 0.020(3) 0.035(4) 0.010(2) 0.015(3) 0.019(3)
P5 P0+ 0.028(4) 0.028(3) 0.025(3) 0.009(2) 0.009(3) 0.016(2)
P6 P0+ 0.035(4) 0.023(3) 0.031(3) 0.008(3) 0.012(3) 0.013(3)
P7 P0+ 0.028(4) 0.020(3) 0.028(3) 0.009(2) 0.008(3) 0.010(2)
P8 P0+ 0.024(4) 0.028(3) 0.034(4) 0.011(3) 0.013(3) 0.017(3)
P9 P0+ 0.034(4) 0.019(3) 0.035(4) 0.012(3) 0.013(3) 0.016(3)
P10 P0+ 0.033(4) 0.025(3) 0.029(4) 0.011(3) 0.017(3) 0.014(3)
P11 P0+ 0.030(4) 0.022(3) 0.020(3) 0.007(2) 0.013(3) 0.011(3)
P12 P0+ 0.020(4) 0.025(3) 0.028(3) 0.007(2) 0.008(3) 0.015(3)
P13 P0+ 0.024(4) 0.029(3) 0.026(3) 0.011(2) 0.008(3) 0.016(3)
P14 P0+ 0.029(4) 0.026(3) 0.033(3) 0.012(2) 0.014(3) 0.018(3)
P15 P0+ 0.022(4) 0.029(3) 0.023(3) 0.006(2) 0.008(3) 0.012(3)
P16 P0+ 0.022(4) 0.021(3) 0.024(3) 0.005(2) 0.011(3) 0.012(2)
P17 P0+ 0.024(4) 0.046(3) 0.035(4) 0.010(3) 0.014(3) 0.021(3)
P18 P0+ 0.023(4) 0.032(3) 0.027(3) 0.003(2) 0.007(3) 0.009(3)
P19 P0+ 0.034(3) 0.028(2) 0.037(3) 0.013(2) 0.016(2) 0.018(2)
P20 P0+ 0.031(3) 0.033(2) 0.035(3) 0.012(2) 0.014(2) 0.022(2)
P21 P0+ 0.035(3) 0.0266(18) 0.035(2) 0.0108(16) 0.0151(18) 0.0181(16)
#End of TTdata_391323-ICSD