
#(C) 2018 by FIZ Karlsruhe - Leibniz Institute for Information Infrastructure.  All rights reserved.
data_10422-ICSD
_database_code_ICSD 10422
_audit_creation_date 1980-01-01
_audit_update_record 2012-08-01
_chemical_name_systematic 'Iron persulfide'
_chemical_formula_structural 'Fe S2'
_chemical_formula_sum 'Fe1 S2'
_chemical_name_structure_type FeS2(aP12)
_chemical_name_mineral Pyrite
_exptl_crystal_density_diffrn 5.01
_publ_section_title
'Crystal structure refinement of a weakly anisotropic pyrite'
loop_
_citation_id
_citation_journal_full
_citation_year
_citation_journal_volume
_citation_page_first
_citation_page_last
_citation_journal_id_ASTM
primary 'American Mineralogist' 1977 62 1168 1172 AMMIAY
loop_
_publ_author_name
'Bayliss, P.'
_cell_length_a 5.417(1)
_cell_length_b 5.417(1)
_cell_length_c 5.417(1)
_cell_angle_alpha 90.
_cell_angle_beta 90.
_cell_angle_gamma 90.
_cell_volume 158.96
_cell_formula_units_Z 4
_symmetry_space_group_name_H-M 'P 1'
_symmetry_Int_Tables_number 1
_refine_ls_R_factor_all 0.032
loop_
_symmetry_equiv_pos_site_id
_symmetry_equiv_pos_as_xyz
1 'x, y, z'
loop_
_atom_type_symbol
_atom_type_oxidation_number
Fe2+ 2
S1- -1
loop_
_atom_site_label
_atom_site_type_symbol
_atom_site_symmetry_multiplicity
_atom_site_Wyckoff_symbol
_atom_site_fract_x
_atom_site_fract_y
_atom_site_fract_z
_atom_site_B_iso_or_equiv
_atom_site_occupancy
_atom_site_attached_hydrogens
Fe1 Fe2+ 1 a 0.0010(8) 0.0020(6) 0.0030(6) . 1. 0
Fe2 Fe2+ 1 a 0.4966(8) 0.0001(6) 0.5036(6) . 1. 0
Fe3 Fe2+ 1 a 0.5001(8) 0.5020(6) 0.0011(6) . 1. 0
Fe4 Fe2+ 1 a -.0006(8) 0.5013(6) 0.5038(6) . 1. 0
S1 S1- 1 a 0.3857(4) 0.3832(4) 0.3840(4) . 1. 0
S2 S1- 1 a 0.1149(4) 0.6114(4) 0.8846(4) . 1. 0
S3 S1- 1 a 0.8854(4) 0.1157(4) 0.6143(4) . 1. 0
S4 S1- 1 a 0.6153(4) 0.8865(4) 0.1141(4) . 1. 0
S5 S1- 1 a 0.6151(4) 0.6132(4) 0.6137(4) . 1. 0
S6 S1- 1 a 0.8854(4) 0.3818(4) 0.1149(4) . 1. 0
S7 S1- 1 a 0.1147(4) 0.8856(4) 0.3841(4) . 1. 0
S8 S1- 1 a 0.3857(4) 0.1161(4) 0.8842(4) . 1. 0
loop_
_atom_site_aniso_label
_atom_site_aniso_type_symbol
_atom_site_aniso_beta_11
_atom_site_aniso_beta_22
_atom_site_aniso_beta_33
_atom_site_aniso_beta_12
_atom_site_aniso_beta_13
_atom_site_aniso_beta_23
Fe1 Fe2+ 0.0023(3) 0.0024(3) 0.0017(3) 0.0000(2) 0.0000(2) 0.0004(2)
Fe2 Fe2+ 0.0026(3) 0.0026(3) 0.0019(3) 0.0002(2) -.0003(2) -.0001(2)
Fe3 Fe2+ 0.0026(3) 0.0021(3) 0.0022(3) 0.0007(2) -.0002(2) -.0003(2)
Fe4 Fe2+ 0.0026(3) 0.0026(3) 0.0016(3) 0.0001(2) -.0002(2) -.0001(2)
S1 S1- 0.0020(6) 0.0018(6) 0.0004(6) -.0007(4) -.0003(4) -.0004(4)
S2 S1- 0.0038(7) 0.0069(7) 0.0050(7) 0.0002(5) -.0001(5) -.0007(5)
S3 S1- 0.0034(6) 0.0003(6) 0.0004(6) -.0001(4) -.0004(4) -.0002(4)
S4 S1- 0.0039(7) 0.0075(7) 0.0039(7) -.0003(5) -.0008(5) -.0010(5)
S5 S1- 0.0035(6) 0.0046(7) 0.0049(7) 0.0002(5) -.0002(5) 0.0000(5)
S6 S1- 0.0026(6) 0.0005(6) 0.0002(6) 0.0000(4) -.0003(4) 0.0002(4)
S7 S1- 0.0035(6) 0.0057(7) 0.0054(7) 0.0001(5) -.0003(5) -.0001(5)
S8 S1- 0.0014(6) 0.0004(6) 0.0011(6) 0.0004(4) 0.0001(4) 0.0004(4)
#End of TTdata_10422-ICSD