
#(C) 2017 by FIZ Karlsruhe - Leibniz Institute for Information Infrastructure.  All rights reserved.
data_105832-ICSD
_database_code_ICSD 105832
_audit_creation_date 2004-10-01
_audit_update_record 2013-02-01
_chemical_name_systematic 'Platinum uranium (2/1)'
_chemical_formula_structural 'Pt2 U'
_chemical_formula_sum 'Pt2 U1'
_exptl_crystal_density_diffrn 18.68
_publ_section_title 'The crystal structure of U Pt2'
loop_
_citation_id
_citation_journal_full
_citation_year
_citation_journal_volume
_citation_page_first
_citation_page_last
_citation_journal_id_ASTM
primary 'Acta Crystallographica (1,1948-23,1967)' 1959 12 655 657 ACCRA9
loop_
_publ_author_name
'Hatt, B.A.'
'Williams, G.I.'
_cell_length_a 5.6
_cell_length_b 9.68
_cell_length_c 4.12
_cell_angle_alpha 90.
_cell_angle_beta 90.
_cell_angle_gamma 90.
_cell_volume 223.34
_cell_formula_units_Z 4
_symmetry_space_group_name_H-M 'A m a 2'
_symmetry_Int_Tables_number 40
loop_
_symmetry_equiv_pos_site_id
_symmetry_equiv_pos_as_xyz
1 'x+1/2, -y, z'
2 '-x+1/2, y, z'
3 '-x, -y, z'
4 'x, y, z'
5 'x+1/2, -y+1/2, z+1/2'
6 '-x+1/2, y+1/2, z+1/2'
7 '-x, -y+1/2, z+1/2'
8 'x, y+1/2, z+1/2'
loop_
_atom_type_symbol
_atom_type_oxidation_number
Pt0+ 0
U0+ 0
loop_
_atom_site_label
_atom_site_type_symbol
_atom_site_symmetry_multiplicity
_atom_site_Wyckoff_symbol
_atom_site_fract_x
_atom_site_fract_y
_atom_site_fract_z
_atom_site_B_iso_or_equiv
_atom_site_occupancy
_atom_site_attached_hydrogens
Pt1 Pt0+ 4 a 0 0 0 . 1. 0
Pt2 Pt0+ 4 b 0.25 0.38 0 . 1. 0
U1 U0+ 4 b 0.25 0.17 0.5 . 1. 0
#End of TTdata_105832-ICSD