
#(C) 2017 by FIZ Karlsruhe - Leibniz Institute for Information Infrastructure.  All rights reserved.
data_41707-ICSD
_database_code_ICSD 41707
_audit_creation_date 2000-07-15
_audit_update_record 2014-08-01
_chemical_name_systematic 'Samarium germanide (5/4)'
_chemical_formula_structural 'Sm5 Ge4'
_chemical_formula_sum 'Ge4 Sm5'
_chemical_name_structure_type Ba5Sb4-Sm5Ge4
_exptl_crystal_density_diffrn 7.62
_publ_section_title 'The crystal structure of Sm5 Ge4'
loop_
_citation_id
_citation_journal_full
_citation_year
_citation_journal_volume
_citation_page_first
_citation_page_last
_citation_journal_id_ASTM
primary 'Acta Crystallographica (1,1948-23,1967)' 1967 22 269 272 ACCRA9
loop_
_publ_author_name
'Smith, G.S.'
'Johnson, Q.'
'Tharp, A.G.'
_cell_length_a 7.75(1)
_cell_length_b 14.9421
_cell_length_c 7.84(1)
_cell_angle_alpha 90.
_cell_angle_beta 90.
_cell_angle_gamma 90.
_cell_volume 907.88
_cell_formula_units_Z 4
_symmetry_space_group_name_H-M 'P n m a'
_symmetry_Int_Tables_number 62
_refine_ls_R_factor_all 0.093
loop_
_symmetry_equiv_pos_site_id
_symmetry_equiv_pos_as_xyz
1 'x+1/2, y, -z+1/2'
2 'x, -y+1/2, z'
3 '-x+1/2, y+1/2, z+1/2'
4 '-x, -y, -z'
5 '-x+1/2, -y, z+1/2'
6 '-x, y+1/2, -z'
7 'x+1/2, -y+1/2, -z+1/2'
8 'x, y, z'
loop_
_atom_type_symbol
_atom_type_oxidation_number
Sm0+ 0
Ge0+ 0
loop_
_atom_site_label
_atom_site_type_symbol
_atom_site_symmetry_multiplicity
_atom_site_Wyckoff_symbol
_atom_site_fract_x
_atom_site_fract_y
_atom_site_fract_z
_atom_site_B_iso_or_equiv
_atom_site_occupancy
_atom_site_attached_hydrogens
Sm1 Sm0+ 8 d 0.1205(5) 0.1157(3) 0.3388(5) 1.1(1) 1. 0
Sm2 Sm0+ 8 d 0.9747(5) 0.1004(3) 0.8219(5) 1.1(1) 1. 0
Sm3 Sm0+ 4 c 0.2880(8) 0.25 0.0024(8) 1.1(1) 1. 0
Ge1 Ge0+ 8 d 0.2206(11) -.0449(6) 0.5312(11) 1.1(2) 1. 0
Ge2 Ge0+ 4 c 0.9132(16) 0.25 0.1115(15) 1.2(2) 1. 0
Ge3 Ge0+ 4 c 0.1761(15) 0.25 0.6333(15) 1.1(3) 1. 0
#End of TTdata_41707-ICSD