#------------------------------------------------------------------------------
#$Date: 2016-02-13 21:28:24 +0200 (Sat, 13 Feb 2016) $
#$Revision: 176429 $
#$URL: svn://www.crystallography.net/cod/cif/1/52/01/1520109.cif $
#------------------------------------------------------------------------------
#
# This file is available in the Crystallography Open Database (COD),
# http://www.crystallography.net/
#
# All data on this site have been placed in the public domain by the
# contributors.
#
data_1520109
loop_
_publ_author_name
'Welzmiller, Simon'
'Hennersdorf, Felix'
'Schlegel, Robert'
'Fitch, Andrew'
'Wagner, Gerald'
'Oeckler, Oliver'
_publ_section_title
;
 Silver Indium Telluride Semiconductors and Their Solid Solutions with
 Cadmium Indium Telluride: Structure and Physical Properties.
;
_journal_issue                   12
_journal_name_full               'Inorganic chemistry'
_journal_page_first              5745
_journal_page_last               5756
_journal_paper_doi               10.1021/acs.inorgchem.5b00433
_journal_volume                  54
_journal_year                    2015
_chemical_formula_sum            'Ag0.8 In2.4 Te4'
_chemical_formula_weight         872.69
_chemical_name_common            'indium silver telluride'
_chemical_name_systematic
; 
 cadmium indium silvertelluride
;
_space_group_IT_number           112
_symmetry_cell_setting           tetragonal
_symmetry_Int_Tables_number      112
_symmetry_space_group_name_Hall  'P -4 2c'
_symmetry_space_group_name_H-M   'P -4 2 c'
_audit_creation_method           'TOPAS ACADEMIC 4.2 and PLATON'
_cell_angle_alpha                90
_cell_angle_beta                 90
_cell_angle_gamma                90
_cell_formula_units_Z            2
_cell_length_a                   6.24929(3)
_cell_length_b                   6.24929(3)
_cell_length_c                   12.49988(9)
_cell_measurement_temperature    297(2)
_cell_volume                     488.166(5)
_computing_molecular_graphics    'Diamond 3.2i'
_computing_publication_material  'TOPAS ACADEMIC 4.2'
_computing_structure_refinement  'TOPAS ACADEMIC 4.2'
_computing_structure_solution    model
_diffrn_ambient_temperature      297(2)
_diffrn_measurement_device_type  'powder diffractometer'
_diffrn_measurement_method       spinning
_diffrn_measurement_specimen_support capillary
_diffrn_radiation_monochromator  Si-111
_diffrn_radiation_probe          x-ray
_diffrn_radiation_type           synchrotron
_diffrn_radiation_wavelength     0.389687
_diffrn_source_type              'ESRF, beamline ID31'
_exptl_absorpt_coefficient_mu    12.3
_exptl_absorpt_process_details
;
;
_exptl_crystal_density_diffrn    5.93
_exptl_crystal_F_000             726
_pd_calc_method                  'Rietveld refinement'
_pd_char_colour                  'metallic black'
_pd_char_particle_morphology     'powder with platelet-shaped crystallites'
_pd_meas_number_of_points        15500
_pd_proc_info_excluded_regions
;
 ?
;
_pd_proc_ls_prof_R_factor        0.086
_pd_proc_ls_prof_wR_factor       0.114
_pd_proc_number_of_points        15500
_refine_ls_goodness_of_fit_all   1.80
_refine_ls_matrix_type           full
_refine_ls_number_constraints    5
_refine_ls_number_parameters     154
_refine_ls_number_restraints     0
_refine_ls_R_I_factor            0.029
_refine_ls_shift/su_max          0.0001
_refine_ls_shift/su_mean         0.000
_reflns_number_total             551
_iucr_refine_instructions_details
;
;
_cod_data_source_file            ic5b00433_si_005.cif
_cod_data_source_block           AgIn3Te5
_cod_depositor_comments
'Adding full bibliography for 1520107--1520110.cif.'
_cod_original_cell_volume        488.166(6)
_cod_original_formula_sum        'Ag0.8  In2.4 Te4'
_cod_database_code               1520109
#BEGIN Tags that were not found in dictionaries:
_pd_proc_ls_prof_r_expected      0.063
#END Tags that were not found in dictionaries
loop_
_symmetry_equiv_pos_site_id
_symmetry_equiv_pos_as_xyz
1 x,y,z
2 y,-x,-z
3 -x,-y,z
4 -y,x,-z
5 x,-y,1/2-z
6 -y,-x,1/2+z
7 -x,y,1/2-z
8 y,x,1/2+z
loop_
_atom_site_label
_atom_site_type_symbol
_atom_site_thermal_displace_type
_atom_site_fract_x
_atom_site_fract_y
_atom_site_fract_z
_atom_site_occupancy
_atom_site_U_iso_or_equiv
Te1 Te Uiso 0.265(2) 0.233(2) 0.13249(13) 1.000 0.0312(8)
In1 In Uiso 0.00000 0.00000 0.00000 0.73(6) 0.021(3)
Ag1 Ag Uiso 0.00000 0.00000 0.00000 0.20(5) 0.021(3)
In2 In Uiso 0.50000 0.50000 0.00000 0.71(7) 0.027(4)
Ag2 Ag Uiso 0.50000 0.50000 0.00000 0.20(6) 0.027(4)
In3 In Uiso 0.50000 0.00000 0.25000 0.24(2) 0.042(3)
Ag3 Ag Uiso 0.50000 0.00000 0.25000 0.20(2) 0.042(3)
In4 In Uiso 0.00000 0.50000 0.25000 0.72 0.0265(9)
Ag4 Ag Uiso 0.00000 0.50000 0.25000 0.20 0.0265(9)
loop_
_atom_type_symbol
_atom_type_description
_atom_type_scat_dispersion_real
_atom_type_scat_dispersion_imag
_atom_type_scat_source
Ag Ag -0.454 2.687
' Henke, B. L. et.al. (1993), Atom. Data Nucl. Data, 54, 181.'
In In -1.028 2.890
'Henke, B. L. et.al. (1993), Atom. Data Nucl. Data, 54, 181.'
Te Te -7.43 3.45 ' measured (fluorescence) '
loop_
_geom_angle_atom_site_label_1
_geom_angle_atom_site_label_2
_geom_angle_atom_site_label_3
_geom_angle
_geom_angle_site_symmetry_1
_geom_angle_site_symmetry_3
_geom_angle_publ_flag
Ag1 Te1 Ag2 106.09(6) . . yes
Ag3 Te1 Ag4 112.62(6) . . yes
Te1 In1 Te1 111.1(3) . 2_555 yes
Te1 In1 Te1 106.2(2) . 3_555 yes
Te1 In1 Te1 111.1(3) . 4_555 yes
Te1 In1 Te1 111.1(3) 2_555 3_555 yes
Te1 In1 Te1 106.2(2) 2_555 4_555 yes
Te1 In1 Te1 111.1(3) 3_555 4_555 yes
Te1 In2 Te1 110.9(3) . 2_565 yes
Te1 In2 Te1 106.6(2) . 3_665 yes
Te1 In2 Te1 110.9(3) . 4_655 yes
Te1 In2 Te1 110.9(3) 2_565 3_665 yes
Te1 In2 Te1 106.6(2) 2_565 4_655 yes
Te1 In2 Te1 110.9(3) 3_665 4_655 yes
Te1 In3 Te1 109.3(4) . 5_555 yes
Te1 In3 Te1 109.9(4) . 7_655 yes
Te1 In3 Te1 109.9(4) 3_655 5_555 yes
Te1 In3 Te1 109.3(4) 3_655 7_655 yes
Te1 In3 Te1 109.2(2) 5_555 7_655 yes
Te1 In3 Te1 109.2(2) . 3_655 yes
Te1 In4 Te1 116.0(2) 5_565 7_555 yes
Te1 In4 Te1 116.0(2) . 3_565 yes
Te1 In4 Te1 106.6(3) . 5_565 yes
Te1 In4 Te1 106.0(3) . 7_555 yes
Te1 In4 Te1 106.0(3) 3_565 5_565 yes
Te1 In4 Te1 106.6(3) 3_565 7_555 yes
Te1 Ag1 Te1 111.1(3) . 2_555 yes
Te1 Ag1 Te1 106.2(2) . 3_555 yes
Te1 Ag1 Te1 111.1(3) . 4_555 yes
Te1 Ag1 Te1 111.1(3) 2_555 3_555 yes
Te1 Ag1 Te1 106.2(2) 2_555 4_555 yes
Te1 Ag1 Te1 111.1(3) 3_555 4_555 yes
Te1 Ag2 Te1 110.9(3) . 2_565 yes
Te1 Ag2 Te1 106.6(2) . 3_665 yes
Te1 Ag2 Te1 110.9(3) . 4_655 yes
Te1 Ag2 Te1 110.9(3) 2_565 3_665 yes
Te1 Ag2 Te1 106.6(2) 2_565 4_655 yes
Te1 Ag2 Te1 110.9(3) 3_665 4_655 yes
Te1 Ag3 Te1 109.2(2) . 3_655 yes
Te1 Ag3 Te1 109.3(4) . 5_555 yes
Te1 Ag3 Te1 109.9(4) . 7_655 yes
Te1 Ag3 Te1 109.9(4) 3_655 5_555 yes
Te1 Ag3 Te1 109.3(4) 3_655 7_655 yes
Te1 Ag3 Te1 109.2(2) 5_555 7_655 yes
Te1 Ag4 Te1 116.0(2) . 3_565 yes
Te1 Ag4 Te1 106.6(3) . 5_565 yes
Te1 Ag4 Te1 106.0(3) . 7_555 yes
Te1 Ag4 Te1 106.0(3) 3_565 5_565 yes
Te1 Ag4 Te1 106.6(3) 3_565 7_555 yes
Te1 Ag4 Te1 116.0(2) 5_565 7_555 yes
loop_
_geom_bond_atom_site_label_1
_geom_bond_atom_site_label_2
_geom_bond_distance
_geom_bond_publ_flag
Te1 In1 2.758(10) yes
Te1 In2 2.772(10) yes
Te1 In4 2.772(11) yes
Te1 In3 2.537(10) yes
Te1 Ag1 2.758(10) yes
Te1 Ag2 2.772(10) yes
Te1 Ag3 2.537(10) yes
Te1 Ag4 2.772(11) yes
