
#(C) 2017 by FIZ Karlsruhe - Leibniz Institute for Information Infrastructure.  All rights reserved.
data_87272-ICSD
_database_code_ICSD 87272
_audit_creation_date 2000-12-16
_audit_update_record 2012-02-01
_chemical_name_systematic 'Tellurium - HP'
_chemical_formula_structural Te
_chemical_formula_sum Te1
_chemical_name_structure_type Te(mP4)
_exptl_crystal_density_diffrn 7.64
_cell_measurement_pressure 4500000.
_publ_section_title 'Crystal structure of the high-pressure phase of tellurium'
loop_
_citation_id
_citation_journal_full
_citation_year
_citation_journal_volume
_citation_page_first
_citation_page_last
_citation_journal_id_ASTM
primary 'Journal of the Physical Society of Japan' 1980 48 551 556 JUPSAU
loop_
_publ_author_name
'Aoki, K.'
'Shimomura, O.'
'Minomura, S.'
_cell_length_a 3.104(5)
_cell_length_b 7.513(10)
_cell_length_c 4.760(9)
_cell_angle_alpha 90.
_cell_angle_beta 92.71(19)
_cell_angle_gamma 90.
_cell_volume 110.88
_cell_formula_units_Z 4
_symmetry_space_group_name_H-M 'P 1 21 1'
_symmetry_Int_Tables_number 4
_refine_ls_R_factor_all 0.135
loop_
_symmetry_equiv_pos_site_id
_symmetry_equiv_pos_as_xyz
1 '-x, y+1/2, -z'
2 'x, y, z'
loop_
_atom_type_symbol
_atom_type_oxidation_number
Te0+ 0
loop_
_atom_site_label
_atom_site_type_symbol
_atom_site_symmetry_multiplicity
_atom_site_Wyckoff_symbol
_atom_site_fract_x
_atom_site_fract_y
_atom_site_fract_z
_atom_site_B_iso_or_equiv
_atom_site_occupancy
_atom_site_attached_hydrogens
Te1 Te0+ 2 a 0.25 0.23 0.48 . 1. 0
Te2 Te0+ 2 a 0.23 0 0.02 . 1. 0
#End of TTdata_87272-ICSD