
#(C) 2017 by FIZ Karlsruhe - Leibniz Institute for Information Infrastructure.  All rights reserved.
data_290909-ICSD
_database_code_ICSD 290909
_audit_creation_date 2014-08-01
_chemical_name_systematic Boron
_chemical_formula_structural B12
_chemical_formula_sum B12
_exptl_crystal_density_diffrn 2.2
_publ_section_title

;
Structural study of a new B-rich phase obtained by partial hydrogenation of
2Na H + Mg B2
;
loop_
_citation_id
_citation_journal_full
_citation_year
_citation_journal_volume
_citation_page_first
_citation_page_last
_citation_journal_id_ASTM
primary 'International Journal of Hydrogen Energy' 2013 38 10479 10484 IJHEDX
loop_
_publ_author_name
'Pistidda, Claudio'
'Napolitano, Emilio'
'Pottmaier, Daphiny'
'Dornheim, Martin'
'Klassen, Thomas'
'Baricco, Marcello'
'Enzo, Stefano'
_cell_length_a 7.3195(4)
_cell_length_b 7.3195(4)
_cell_length_c 7.3195(4)
_cell_angle_alpha 90.
_cell_angle_beta 90.
_cell_angle_gamma 90.
_cell_volume 392.14
_cell_formula_units_Z 4
_symmetry_space_group_name_H-M 'P 2 3'
_symmetry_Int_Tables_number 195
loop_
_symmetry_equiv_pos_site_id
_symmetry_equiv_pos_as_xyz
1 '-z, -x, y'
2 '-y, -z, x'
3 '-x, -y, z'
4 '-z, x, -y'
5 '-y, z, -x'
6 '-x, y, -z'
7 'z, -x, -y'
8 'y, -z, -x'
9 'x, -y, -z'
10 'z, x, y'
11 'y, z, x'
12 'x, y, z'
loop_
_atom_type_symbol
_atom_type_oxidation_number
B0+ 0
loop_
_atom_site_label
_atom_site_type_symbol
_atom_site_symmetry_multiplicity
_atom_site_Wyckoff_symbol
_atom_site_fract_x
_atom_site_fract_y
_atom_site_fract_z
_atom_site_B_iso_or_equiv
_atom_site_occupancy
_atom_site_attached_hydrogens
B1 B0+ 12 j 0.2524 0.63871 0.96972 1.5 1. 0
B2 B0+ 12 j 0.5001 0.70038 0.72399 1.5 1. 0
B3 B0+ 12 j 0.75957 0.12208 0.42117 1.5 1. 0
B4 B0+ 12 j 0.94935 0.27861 0.86913 1.5 1. 0
#End of TTdata_290909-ICSD