
#(C) 2018 by FIZ Karlsruhe - Leibniz Institute for Information Infrastructure.  All rights reserved.
data_26765-ICSD
_database_code_ICSD 26765
_audit_creation_date 1980-01-01
_audit_update_record 2013-02-01
_chemical_name_systematic 'Barium trio-trisulfide'
_chemical_formula_structural 'Ba S3'
_chemical_formula_sum 'Ba1 S3'
_exptl_crystal_density_diffrn 3.99
_publ_section_title 'The structure of polysulfides: I. Barium trisulfide'
loop_
_citation_id
_citation_journal_full
_citation_year
_citation_journal_volume
_citation_page_first
_citation_page_last
_citation_journal_id_ASTM
primary 'Zeitschrift fuer Kristallographie' 1936 94 439 446 ZEKRDZ
loop_
_publ_author_name
'Miller, W.S.'
'King, A.J.'
_cell_length_a 8.34
_cell_length_b 9.66
_cell_length_c 4.83
_cell_angle_alpha 90.
_cell_angle_beta 90.
_cell_angle_gamma 90.
_cell_volume 389.13
_cell_formula_units_Z 4
_symmetry_space_group_name_H-M 'P 21 21 2'
_symmetry_Int_Tables_number 18
loop_
_symmetry_equiv_pos_site_id
_symmetry_equiv_pos_as_xyz
1 '-x+1/2, y+1/2, -z'
2 'x+1/2, -y+1/2, -z'
3 '-x, -y, z'
4 'x, y, z'
loop_
_atom_type_symbol
_atom_type_oxidation_number
Ba2+ 2
S1- -1
S0+ 0
loop_
_atom_site_label
_atom_site_type_symbol
_atom_site_symmetry_multiplicity
_atom_site_Wyckoff_symbol
_atom_site_fract_x
_atom_site_fract_y
_atom_site_fract_z
_atom_site_B_iso_or_equiv
_atom_site_occupancy
_atom_site_attached_hydrogens
Ba1 Ba2+ 2 a 0 0 0 . 1. 0
Ba2 Ba2+ 2 b 0 0.5 0 . 1. 0
S1 S1- 4 c 0.25 0.25 0 . 1. 0
S2 S1- 4 c 0.25 0.5 0.5 . 1. 0
S3 S0+ 4 c 0.124 0.309 0.382 . 1. 0
#End of TTdata_26765-ICSD