
#(C) 2017 by FIZ Karlsruhe - Leibniz Institute for Information Infrastructure.  All rights reserved.
data_44866-ICSD
_database_code_ICSD 44866
_audit_creation_date 2000-12-16
_audit_update_record 2015-08-01
_chemical_name_systematic 'Plutonium - gamma, HT'
_chemical_formula_structural Pu
_chemical_formula_sum Pu1
_chemical_name_structure_type Pu(oF8)
_chemical_name_mineral Plutonium-gamma
_exptl_crystal_density_diffrn 17.51
_cell_measurement_temperature 508.
_publ_section_title
'The crystal structure and thermal expansion of gamma-plutonium'
loop_
_citation_id
_citation_journal_full
_citation_year
_citation_journal_volume
_citation_page_first
_citation_page_last
_citation_journal_id_ASTM
primary 'Acta Crystallographica (1,1948-23,1967)' 1955 8 431 433 ACCRA9
loop_
_publ_author_name
'Ellinger, F.H.'
_cell_length_a 3.1587(4)
_cell_length_b 5.7682(4)
_cell_length_c 10.162(2)
_cell_angle_alpha 90.
_cell_angle_beta 90.
_cell_angle_gamma 90.
_cell_volume 185.15
_cell_formula_units_Z 8
_symmetry_space_group_name_H-M 'F d d d S'
_symmetry_Int_Tables_number 70
loop_
_symmetry_equiv_pos_site_id
_symmetry_equiv_pos_as_xyz
1 'x+1/4, y+1/4, -z+1/4'
2 '-x+1/4, y+1/4, z+1/4'
3 '-x, -y, z'
4 'x, -y, -z'
5 'x+1/4, -y+1/4, z+1/4'
6 '-x+1/4, -y+1/4, -z+1/4'
7 '-x, y, -z'
8 'x, y, z'
9 'x+1/4, y+3/4, -z+3/4'
10 '-x+1/4, y+3/4, z+3/4'
11 '-x, -y+1/2, z+1/2'
12 'x, -y+1/2, -z+1/2'
13 'x+1/4, -y+3/4, z+3/4'
14 '-x+1/4, -y+3/4, -z+3/4'
15 '-x, y+1/2, -z+1/2'
16 'x, y+1/2, z+1/2'
17 'x+3/4, y+1/4, -z+3/4'
18 '-x+3/4, y+1/4, z+3/4'
19 '-x+1/2, -y, z+1/2'
20 'x+1/2, -y, -z+1/2'
21 'x+3/4, -y+1/4, z+3/4'
22 '-x+3/4, -y+1/4, -z+3/4'
23 '-x+1/2, y, -z+1/2'
24 'x+1/2, y, z+1/2'
25 'x+3/4, y+3/4, -z+1/4'
26 '-x+3/4, y+3/4, z+1/4'
27 '-x+1/2, -y+1/2, z'
28 'x+1/2, -y+1/2, -z'
29 'x+3/4, -y+3/4, z+1/4'
30 '-x+3/4, -y+3/4, -z+1/4'
31 '-x+1/2, y+1/2, -z'
32 'x+1/2, y+1/2, z'
loop_
_atom_type_symbol
_atom_type_oxidation_number
Pu0+ 0
loop_
_atom_site_label
_atom_site_type_symbol
_atom_site_symmetry_multiplicity
_atom_site_Wyckoff_symbol
_atom_site_fract_x
_atom_site_fract_y
_atom_site_fract_z
_atom_site_B_iso_or_equiv
_atom_site_occupancy
_atom_site_attached_hydrogens
Pu1 Pu0+ 8 a 0 0 0 . 1. 0
#End of TTdata_44866-ICSD