
#(C) 2017 by FIZ Karlsruhe - Leibniz Institute for Information Infrastructure.  All rights reserved.
data_245958-ICSD
_database_code_ICSD 245958
_audit_creation_date 2009-02-01
_chemical_name_systematic 'Germanium - HP'
_chemical_formula_structural Ge
_chemical_formula_sum Ge1
_chemical_name_structure_type Ge
_exptl_crystal_density_diffrn 6.19
_cell_measurement_pressure 4600000.
_publ_section_title
'A 3D network of four-bonded germanium: A link between open and dense'
loop_
_citation_id
_citation_journal_full
_citation_year
_citation_journal_volume
_citation_page_first
_citation_page_last
_citation_journal_id_ASTM
primary 'Angewandte Chemie. International Edition' 2008 47 6790 6793 ACIEF5
loop_
_publ_author_name
'Schwarz, U.'
'Wosylus, A.'
'Boehme, B.'
'Baitinger, M.'
'Hanfland, M.'
'Grin', Yu.'
_cell_length_a 9.6864
_cell_length_b 9.6864
_cell_length_c 5.755
_cell_angle_alpha 90.
_cell_angle_beta 90.
_cell_angle_gamma 120.
_cell_volume 467.63
_cell_formula_units_Z 24
_symmetry_space_group_name_H-M 'R -3 H'
_symmetry_Int_Tables_number 148
loop_
_symmetry_equiv_pos_site_id
_symmetry_equiv_pos_as_xyz
1 'x-y, x, -z'
2 'y, -x+y, -z'
3 '-x, -y, -z'
4 '-x+y, -x, z'
5 '-y, x-y, z'
6 'x, y, z'
7 'x-y+2/3, x+1/3, -z+1/3'
8 'y+2/3, -x+y+1/3, -z+1/3'
9 '-x+2/3, -y+1/3, -z+1/3'
10 '-x+y+2/3, -x+1/3, z+1/3'
11 '-y+2/3, x-y+1/3, z+1/3'
12 'x+2/3, y+1/3, z+1/3'
13 'x-y+1/3, x+2/3, -z+2/3'
14 'y+1/3, -x+y+2/3, -z+2/3'
15 '-x+1/3, -y+2/3, -z+2/3'
16 '-x+y+1/3, -x+2/3, z+2/3'
17 '-y+1/3, x-y+2/3, z+2/3'
18 'x+1/3, y+2/3, z+2/3'
loop_
_atom_type_symbol
_atom_type_oxidation_number
Ge0+ 0
loop_
_atom_site_label
_atom_site_type_symbol
_atom_site_symmetry_multiplicity
_atom_site_Wyckoff_symbol
_atom_site_fract_x
_atom_site_fract_y
_atom_site_fract_z
_atom_site_B_iso_or_equiv
_atom_site_occupancy
_atom_site_attached_hydrogens
Ge1 Ge0+ 6 c 0 0 0.287(1) . 1. 0
Ge2 Ge0+ 18 f 0.2299(5) -0.0354(4) 0.2338(9) . 1. 0
#End of TTdata_245958-ICSD