
#(C) 2017 by FIZ Karlsruhe - Leibniz Institute for Information Infrastructure.  All rights reserved.
data_153837-ICSD
_database_code_ICSD 153837
_audit_creation_date 2007-04-01
_chemical_name_systematic 'Scandium - V'
_chemical_formula_structural Sc
_chemical_formula_sum Sc1
_exptl_crystal_density_diffrn 8.93
_cell_measurement_pressure 242000000.
_publ_section_title 'New helical chain structure for scandium at 240 GPa'
loop_
_citation_id
_citation_journal_full
_citation_year
_citation_journal_volume
_citation_page_first
_citation_page_last
_citation_journal_id_ASTM
primary 'Physical Review Letters' 2005 94 195503-1 195503-4 PRLTAO
loop_
_publ_author_name
'Akahama, Y.'
'Fujihisa, H.'
'Kawamura, H.'
_cell_length_a 2.355(1)
_cell_length_b 2.355(1)
_cell_length_c 10.446(3)
_cell_angle_alpha 90.
_cell_angle_beta 90.
_cell_angle_gamma 120.
_cell_volume 50.17
_cell_formula_units_Z 6
_symmetry_space_group_name_H-M 'P 61 2 2'
_symmetry_Int_Tables_number 178
_refine_ls_R_factor_all 0.25
loop_
_symmetry_equiv_pos_site_id
_symmetry_equiv_pos_as_xyz
1 'x, x-y, -z'
2 '-x+y, y, -z+1/2'
3 '-y, -x, -z'
4 '-x, -x+y, -z+2/3'
5 'x-y, -y, -z'
6 'y, x, -z+1/3'
7 'x-y, x, z'
8 'y, -x+y, z'
9 '-x, -y, z+1/2'
10 '-x+y, -x, z+2/3'
11 '-y, x-y, z+1/3'
12 'x, y, z'
loop_
_atom_type_symbol
_atom_type_oxidation_number
Sc0+ 0
loop_
_atom_site_label
_atom_site_type_symbol
_atom_site_symmetry_multiplicity
_atom_site_Wyckoff_symbol
_atom_site_fract_x
_atom_site_fract_y
_atom_site_fract_z
_atom_site_B_iso_or_equiv
_atom_site_occupancy
_atom_site_attached_hydrogens
Sc1 Sc0+ 6 a 0.461(1) 0 0 . 1. 0
#End of TTdata_153837-ICSD