
#(C) 2017 by FIZ Karlsruhe - Leibniz Institute for Information Infrastructure, and the U.S. Secretary of
#Commerce on behalf of the United States.  All rights reserved.
data_608101-ICSD
_database_code_ICSD 608101
_audit_creation_date 2012-02-01
_chemical_name_systematic 'Hafnium aluminide (2/3)'
_chemical_formula_structural 'Hf2 Al3'
_chemical_formula_sum 'Al3 Hf2'
_chemical_name_structure_type Al3Zr2
_exptl_crystal_density_diffrn 8.03
_publ_section_title

;
Investigations of the ternary systems (Zr,Hf,Nb,Ta)-Al-C and studies on
complex carbides
;
_publ_section_comment 'Cell and Type only determined'
loop_
_citation_id
_citation_journal_full
_citation_year
_citation_journal_volume
_citation_page_first
_citation_page_last
_citation_journal_id_ASTM
primary 'Journal of the Less-Common Metals' 1980 71 341 346 JCOMAH
loop_
_publ_author_name
'Schuster, J.C.'
'Nowotny, H.'
_cell_length_a 9.512
_cell_length_b 13.8
_cell_length_c 5.522
_cell_angle_alpha 90.
_cell_angle_beta 90.
_cell_angle_gamma 90.
_cell_volume 724.85
_cell_formula_units_Z 8
_symmetry_space_group_name_H-M 'F d d 2'
_symmetry_Int_Tables_number 43
loop_
_symmetry_equiv_pos_site_id
_symmetry_equiv_pos_as_xyz
1 'x+1/4, -y+1/4, z+1/4'
2 '-x+1/4, y+1/4, z+1/4'
3 '-x, -y, z'
4 'x, y, z'
5 'x+1/4, -y+3/4, z+3/4'
6 '-x+1/4, y+3/4, z+3/4'
7 '-x, -y+1/2, z+1/2'
8 'x, y+1/2, z+1/2'
9 'x+3/4, -y+1/4, z+3/4'
10 '-x+3/4, y+1/4, z+3/4'
11 '-x+1/2, -y, z+1/2'
12 'x+1/2, y, z+1/2'
13 'x+3/4, -y+3/4, z+1/4'
14 '-x+3/4, y+3/4, z+1/4'
15 '-x+1/2, -y+1/2, z'
16 'x+1/2, y+1/2, z'
loop_
_atom_type_symbol
_atom_type_oxidation_number
Al0+ 0
Hf0+ 0
loop_
_atom_site_label
_atom_site_type_symbol
_atom_site_symmetry_multiplicity
_atom_site_Wyckoff_symbol
_atom_site_fract_x
_atom_site_fract_y
_atom_site_fract_z
_atom_site_B_iso_or_equiv
_atom_site_occupancy
_atom_site_attached_hydrogens
Al1 Al0+ 8 a 0 0 0.63 . 1. 0
Al2 Al0+ 16 b 0.195 0.129 0.5 . 1. 0
Hf1 Hf0+ 16 b 0.185 0.054 0. . 1. 0
#End of TTdata_608101-ICSD