
#(C) 2017 by FIZ Karlsruhe - Leibniz Institute for Information Infrastructure.  All rights reserved.
data_157074-ICSD
_database_code_ICSD 157074
_audit_creation_date 2008-02-01
_chemical_name_systematic 'Carbon - n-diamond'
_chemical_formula_structural C
_chemical_formula_sum C1
_chemical_name_mineral Diamond-n
_exptl_crystal_density_diffrn 3.47
_cell_measurement_temperature 293.
_publ_section_title
'n-diamond: an intermediate state between rhombohedral graphite and diamond?'
loop_
_citation_id
_citation_journal_full
_citation_year
_citation_journal_volume
_citation_page_first
_citation_page_last
_citation_journal_id_ASTM
primary

;
New Journal of Physics, IOP Publishing Ltd and Deutsche Physikalische
Gesellschaft
; 2006 8 1 10 NJOPFM
loop_
_publ_author_name
'Wen Bin'
'Zhao Jijun'
'Li Tingju'
'Dong Chuang'
_cell_length_a 3.5809
_cell_length_b 3.5809
_cell_length_c 3.5809
_cell_angle_alpha 90.
_cell_angle_beta 90.
_cell_angle_gamma 90.
_cell_volume 45.92
_cell_formula_units_Z 8
_symmetry_space_group_name_H-M 'R 3 R'
_symmetry_Int_Tables_number 146
loop_
_symmetry_equiv_pos_site_id
_symmetry_equiv_pos_as_xyz
1 'z, x, y'
2 'y, z, x'
3 'x, y, z'
loop_
_atom_type_symbol
_atom_type_oxidation_number
C0+ 0
loop_
_atom_site_label
_atom_site_type_symbol
_atom_site_symmetry_multiplicity
_atom_site_Wyckoff_symbol
_atom_site_fract_x
_atom_site_fract_y
_atom_site_fract_z
_atom_site_B_iso_or_equiv
_atom_site_occupancy
_atom_site_attached_hydrogens
C1 C0+ 1 a 0 0 0 . 1. 0
C2 C0+ 3 b 0.5 0.5 0 . 1. 0
C3 C0+ 1 a 0.355 0.355 0.355 . 1. 0
C4 C0+ 3 b 0.855 0.855 0.355 . 1. 0
#End of TTdata_157074-ICSD