
#(C) 2017 by FIZ Karlsruhe - Leibniz Institute for Information Infrastructure.  All rights reserved.
data_242130-ICSD
_database_code_ICSD 242130
_audit_creation_date 2017-08-01
_chemical_name_systematic 'Manganese tungstate'
_chemical_formula_structural 'Mn W O4'
_chemical_formula_sum 'Mn1 O4 W1'
_chemical_name_mineral Huebnerite
_exptl_crystal_density_diffrn 7.23
_publ_section_title
'HT-solution growth and characterisation of InxNaxMn1-2xWO4 (0 < x <= 0.26)'
loop_
_citation_id
_citation_journal_full
_citation_year
_citation_journal_volume
_citation_page_first
_citation_page_last
_citation_journal_id_ASTM
primary 'Journal of Solid State Chemistry' 2016 244 140 150 JSSCBI
loop_
_publ_author_name
'Gattermann, U.'
'Park, S.H.'
'Paulmann, C.'
'Benka, G.'
'Pfleiderer, C.'
_cell_length_a 4.8284(2)
_cell_length_b 5.7630(2)
_cell_length_c 4.9973(2)
_cell_angle_alpha 90
_cell_angle_beta 91.225(3)
_cell_angle_gamma 90
_cell_volume 139.02
_cell_formula_units_Z 2
_symmetry_space_group_name_H-M 'P 1 2 1'
_symmetry_Int_Tables_number 3
_refine_ls_R_factor_all 0.05
loop_
_symmetry_equiv_pos_site_id
_symmetry_equiv_pos_as_xyz
1 '-x, y, -z'
2 'x, y, z'
loop_
_atom_type_symbol
_atom_type_oxidation_number
Mn2+ 2
W6+ 6
O2- -2
loop_
_atom_site_label
_atom_site_type_symbol
_atom_site_symmetry_multiplicity
_atom_site_Wyckoff_symbol
_atom_site_fract_x
_atom_site_fract_y
_atom_site_fract_z
_atom_site_B_iso_or_equiv
_atom_site_occupancy
_atom_site_attached_hydrogens
Mn1 Mn2+ 1 c 0.5 -0.693(4) 0 0.029(1) 1. 0
Mn2 Mn2+ 1 d 0.5 0.678(4) 0.5 0.032(2) 1. 0
W1 W6+ 1 a 0 0.8202(3) 0 0.0278(8) 1. 0
W2 W6+ 1 b 0 -0.8197(2) 0.5 0.0291(8) 1. 0
O1 O2- 2 e 0.198(6) -0.894(7) 0.187(6) 0.033(8) 1. 0
O2 O2- 2 e 0.219(5) 0.903(6) 0.696(5) 0.025(6) 1. 0
O3 O2- 2 e 0.264(5) -0.615(5) 0.650(5) 0.025(6) 1. 0
O4 O2- 2 e 0.235(6) 0.638(6) 0.135(6) 0.033(7) 1. 0
#End of TTdata_242130-ICSD