
#(C) 2018 by FIZ Karlsruhe - Leibniz Institute for Information Infrastructure.  All rights reserved.
data_108563-ICSD
_database_code_ICSD 108563
_audit_creation_date 2006-10-01
_audit_update_record 2016-02-01
_chemical_name_systematic 'Indium selenide - HT'
_chemical_formula_structural 'In2 Se3'
_chemical_formula_sum 'In2 Se3'
_chemical_name_structure_type Al2S3
_exptl_crystal_density_diffrn 5.5
_publ_section_title 'Crystal structure of the high-temperature form of In2 Se3'
loop_
_citation_id
_citation_journal_full
_citation_year
_citation_journal_volume
_citation_page_first
_citation_page_last
_citation_journal_id_ASTM
primary Kristallografiya 1960 5 704 710 KRISAJ
loop_
_publ_author_name
'Semiletov, S.A.'
_cell_length_a 7.11
_cell_length_b 7.11
_cell_length_c 19.3
_cell_angle_alpha 90.
_cell_angle_beta 90.
_cell_angle_gamma 120.
_cell_volume 844.94
_cell_formula_units_Z 6
_symmetry_space_group_name_H-M 'P 65'
_symmetry_Int_Tables_number 170
loop_
_symmetry_equiv_pos_site_id
_symmetry_equiv_pos_as_xyz
1 'x-y, x, z+5/6'
2 'y, -x+y, z+1/6'
3 '-x, -y, z+1/2'
4 '-x+y, -x, z+1/3'
5 '-y, x-y, z+2/3'
6 'x, y, z'
loop_
_atom_type_symbol
_atom_type_oxidation_number
In2+ 2
Se1- -1
Se2- -2
Se1- -1
loop_
_atom_site_label
_atom_site_type_symbol
_atom_site_symmetry_multiplicity
_atom_site_Wyckoff_symbol
_atom_site_fract_x
_atom_site_fract_y
_atom_site_fract_z
_atom_site_B_iso_or_equiv
_atom_site_occupancy
_atom_site_attached_hydrogens
In1 In2+ 6 a 0.333 0 0.138 . 1. 0
In2 In2+ 6 a 0 0.333 0.138 . 1. 0
Se1 Se1- 6 a 0.333 0 0 . 1. 0
Se2 Se2- 6 a 0 .333 0 . 1. 0
Se3 Se1- 6 a 0.6667 .3333 0 . 1. 0
#End of TTdata_108563-ICSD