
#(C) 2017 by FIZ Karlsruhe - Leibniz Institute for Information Infrastructure.  All rights reserved.
data_24587-ICSD
_database_code_ICSD 24587
_audit_creation_date 1986-09-24
_audit_update_record 1997-11-10
_chemical_name_systematic 'Silicon oxide'
_chemical_formula_structural 'Si O2'
_chemical_formula_sum 'O2 Si1'
_chemical_name_structure_type SnWO4
_chemical_name_mineral 'Cristobalite high'
_exptl_crystal_density_diffrn 2.17
_publ_section_title 'The Cristobalite Structures. I. High-Cristobalite'
loop_
_citation_id
_citation_journal_full
_citation_year
_citation_journal_volume
_citation_page_first
_citation_page_last
_citation_journal_id_ASTM
primary 'American Journal of Science, Serie 5(1,1921-1938)' 1932 23 350 356
AJSC5L
loop_
_publ_author_name
'Barth, T.F.W.'
_cell_length_a 7.16
_cell_length_b 7.16
_cell_length_c 7.16
_cell_angle_alpha 90.
_cell_angle_beta 90.
_cell_angle_gamma 90.
_cell_volume 367.06
_cell_formula_units_Z 8
_symmetry_space_group_name_H-M 'P 21 3'
_symmetry_Int_Tables_number 198
loop_
_symmetry_equiv_pos_site_id
_symmetry_equiv_pos_as_xyz
1 '-z+1/2, -x, y+1/2'
2 '-y+1/2, -z, x+1/2'
3 '-x+1/2, -y, z+1/2'
4 '-z, x+1/2, -y+1/2'
5 '-y, z+1/2, -x+1/2'
6 '-x, y+1/2, -z+1/2'
7 'z+1/2, -x+1/2, -y'
8 'y+1/2, -z+1/2, -x'
9 'x+1/2, -y+1/2, -z'
10 'z, x, y'
11 'y, z, x'
12 'x, y, z'
loop_
_atom_type_symbol
_atom_type_oxidation_number
Si4+ 4
O2- -2
loop_
_atom_site_label
_atom_site_type_symbol
_atom_site_symmetry_multiplicity
_atom_site_Wyckoff_symbol
_atom_site_fract_x
_atom_site_fract_y
_atom_site_fract_z
_atom_site_B_iso_or_equiv
_atom_site_occupancy
_atom_site_attached_hydrogens
Si1 Si4+ 4 a 0.255(8) 0.255(8) 0.255(8) . 1. 0
Si2 Si4+ 4 a -.008(8) -.008(8) -.008(8) . 1. 0
O1 O2- 4 a 0.125(15) 0.125(15) 0.125(15) . 1. 0
O2 O2- 12 b 0.660(15) 0.660(15) 0.062(15) . 1. 0
#End of TTdata_24587-ICSD