
#(C) 2017 by FIZ Karlsruhe - Leibniz Institute for Information Infrastructure.  All rights reserved.
data_16605-ICSD
_database_code_ICSD 16605
_audit_creation_date 1986-09-25
_audit_update_record 2013-02-01
_chemical_name_systematic 'Niobium oxide - HT'
_chemical_formula_structural 'Nb2 O5'
_chemical_formula_sum 'Nb2 O5'
_exptl_crystal_density_diffrn 4.55
_publ_section_title
'The crystal structure of the high temperature form of niobium pentoxide'
loop_
_citation_id
_citation_journal_full
_citation_year
_citation_journal_volume
_citation_page_first
_citation_page_last
_citation_journal_id_ASTM
primary 'Acta Crystallographica (1,1948-23,1967)' 1964 17 1545 1554 ACCRA9
loop_
_publ_author_name
'Gatehouse, B.M.'
'Wadsley, A.D.'
_cell_length_a 21.16
_cell_length_b 3.822
_cell_length_c 19.35
_cell_angle_alpha 90.
_cell_angle_beta 119.83
_cell_angle_gamma 90.
_cell_volume 1357.56
_cell_formula_units_Z 14
_symmetry_space_group_name_H-M 'P 1 2 1'
_symmetry_Int_Tables_number 3
_refine_ls_R_factor_all 0.118
loop_
_symmetry_equiv_pos_site_id
_symmetry_equiv_pos_as_xyz
1 '-x, y, -z'
2 'x, y, z'
loop_
_atom_type_symbol
_atom_type_oxidation_number
Nb5+ 5
O2- -2
loop_
_atom_site_label
_atom_site_type_symbol
_atom_site_symmetry_multiplicity
_atom_site_Wyckoff_symbol
_atom_site_fract_x
_atom_site_fract_y
_atom_site_fract_z
_atom_site_B_iso_or_equiv
_atom_site_occupancy
_atom_site_attached_hydrogens
Nb1 Nb5+ 1 a 0 0.25 0 . 1. 0
Nb2 Nb5+ 1 d 0.5 0 0.5 . 1. 0
Nb3 Nb5+ 2 e 0.1623(5) 0 0.0000(5) . 1. 0
Nb4 Nb5+ 2 e 0.2354(5) 0 0.2310(5) . 1. 0
Nb5 Nb5+ 2 e 0.3017(5) 0 0.4544(5) . 1. 0
Nb6 Nb5+ 2 e 0.3609(5) 0 0.0447(5) . 1. 0
Nb7 Nb5+ 2 e 0.4331(5) 0 0.2776(5) . 1. 0
Nb8 Nb5+ 2 e 0.5635(5) 0 0.0936(5) . 1. 0
Nb9 Nb5+ 2 e 0.6303(5) 0 0.3239(5) . 1. 0
Nb10 Nb5+ 2 e 0.0938(5) 0.5 0.2007(5) . 1. 0
Nb11 Nb5+ 2 e 0.1598(5) 0.5 0.4245(5) . 1. 0
Nb12 Nb5+ 2 e 0.7028(5) 0.5 0.1237(5) . 1. 0
Nb13 Nb5+ 2 e 0.7701(5) 0.5 0.3513(5) . 1. 0
Nb14 Nb5+ 2 e 0.8990(5) 0.5 0.1635(5) . 1. 0
Nb15 Nb5+ 2 e 0.9650(5) 0.5 0.3891(5) . 1. 0
O1 O2- 1 b 0 0.5 0.5 . 1. 0
O2 O2- 1 d 0.5 0.5 0.5 . 1. 0
O3 O2- 2 e 0.131(4) 0 0.204(4) . 1. 0
O4 O2- 2 e 0.200(4) 0 0.443(4) . 1. 0
O5 O2- 2 e 0.194(2) 0 0.114(2) . 1. 0
O6 O2- 2 e 0.261(2) 0 0.341(2) . 1. 0
O7 O2- 2 e 0.260(2) 0 0.014(2) . 1. 0
O8 O2- 2 e 0.330(2) 0 0.249(2) . 1. 0
O9 O2- 2 e 0.398(2) 0 0.480(2) . 1. 0
O10 O2- 2 e 0.407(2) 0 0.155(2) . 1. 0
O11 O2- 2 e 0.461(2) 0 0.384(2) . 1. 0
O12 O2- 2 e 0.460(2) 0 0.037(2) . 1. 0
O13 O2- 2 e 0.535(2) 0 0.295(2) . 1. 0
O14 O2- 2 e 0.590(2) 0 0.198(2) . 1. 0
O15 O2- 2 e 0.663(2) 0 0.428(2) . 1. 0
O16 O2- 2 e 0.657(4) 0 0.096(4) . 1. 0
O17 O2- 2 e 0.743(4) 0 0.340(4) . 1. 0
O18 O2- 2 e 0.883(4) 0 0.128(4) . 1. 0
O19 O2- 2 e 0.944(2) 0 0.028(2) . 1. 0
O20 O2- 2 e 0.965(4) 0 0.389(4) . 1. 0
O21 O2- 2 e 0.056(2) 0.5 0.075(2) . 1. 0
O22 O2- 2 e 0.068(2) 0.5 0.406(2) . 1. 0
O23 O2- 2 e 0.135(2) 0.5 0.311(2) . 1. 0
O24 O2- 2 e 0.194(4) 0.5 0.215(4) . 1. 0
O25 O2- 2 e 0.266(4) 0.5 0.447(4) . 1. 0
O26 O2- 2 e 0.355(4) 0.5 0.010(4) . 1. 0
O27 O2- 2 e 0.426(4) 0.5 0.241(4) . 1. 0
O28 O2- 2 e 0.594(4) 0.5 0.091(4) . 1. 0
O29 O2- 2 e 0.658(4) 0.5 0.312(4) . 1. 0
O30 O2- 2 e 0.732(2) 0.5 0.231(2) . 1. 0
O31 O2- 2 e 0.799(2) 0.5 0.455(2) . 1. 0
O32 O2- 2 e 0.793(2) 0.5 0.130(2) . 1. 0
O33 O2- 2 e 0.862(2) 0.5 0.365(2) . 1. 0
O34 O2- 2 e 0.845(4) 0.5 0.029(4) . 1. 0
O35 O2- 2 e 0.933(2) 0.5 0.265(2) . 1. 0
O36 O2- 2 e 0.000(2) 0.5 0.176(2) . 1. 0
#End of TTdata_16605-ICSD