
#(C) 2018 by FIZ Karlsruhe - Leibniz Institute for Information Infrastructure.  All rights reserved.
data_23474-ICSD
_database_code_ICSD 23474
_audit_creation_date 1980-01-01
_audit_update_record 2010-08-01
_chemical_name_systematic 'Trithallium phosphate(V)'
_chemical_formula_structural 'Tl3 (P O4)'
_chemical_formula_sum 'O4 P1 Tl3'
_chemical_name_structure_type Tl3PO4
_exptl_crystal_density_diffrn 7.6
_publ_section_title

;
Role stereochimique du doublet solitaire du thallium(I) dans la structure
cristalline de Tl3 P O4
;
loop_
_citation_id
_citation_journal_full
_citation_year
_citation_journal_volume
_citation_page_first
_citation_page_last
_citation_journal_id_ASTM
primary

;
Comptes Rendus des Seances de l'Academie des Sciences, Serie C: Sciences
Chimiques
; 1973 276 1755 1757 CHDCAQ
loop_
_publ_author_name
'Ganne, M.'
'Tournoux, M.'
_cell_length_a 8.355(5)
_cell_length_b 8.355(5)
_cell_length_c 5.115(5)
_cell_angle_alpha 90.
_cell_angle_beta 90.
_cell_angle_gamma 120.
_cell_volume 309.22
_cell_formula_units_Z 2
_symmetry_space_group_name_H-M 'P 63'
_symmetry_Int_Tables_number 173
_refine_ls_R_factor_all 0.061
loop_
_symmetry_equiv_pos_site_id
_symmetry_equiv_pos_as_xyz
1 'x-y, x, z+1/2'
2 'y, -x+y, z+1/2'
3 '-x, -y, z+1/2'
4 '-x+y, -x, z'
5 '-y, x-y, z'
6 'x, y, z'
loop_
_atom_type_symbol
_atom_type_oxidation_number
Tl1+ 1
P5+ 5
O2- -2
loop_
_atom_site_label
_atom_site_type_symbol
_atom_site_symmetry_multiplicity
_atom_site_Wyckoff_symbol
_atom_site_fract_x
_atom_site_fract_y
_atom_site_fract_z
_atom_site_B_iso_or_equiv
_atom_site_occupancy
_atom_site_attached_hydrogens
Tl1 Tl1+ 6 c 0.3541(1) 0.0922(1) 0 1.64 1. 0
P1 P5+ 2 b 0.6667 0.3333 0.5212(81) 1.04 1. 0
O1 O2- 6 c 0.5326(38) 0.1333(35) 0.4205(56) 1.97 1. 0
O2 O2- 2 b 0.6667 0.3333 0.819(10) 1.8 1. 0
#End of TTdata_23474-ICSD