
#(C) 2018 by FIZ Karlsruhe - Leibniz Institute for Information Infrastructure.  All rights reserved.
data_96594-ICSD
_database_code_ICSD 96594
_audit_creation_date 2004-04-01
_chemical_name_systematic 'Tantalum - beta, RT-I'
_chemical_formula_structural Ta
_chemical_formula_sum Ta1
_chemical_name_structure_type Ta(tP30)
_exptl_crystal_density_diffrn 16.29
_publ_section_title
'The commensurate composite sigma-structure of beta-tantalum'
loop_
_citation_id
_citation_journal_full
_citation_year
_citation_journal_volume
_citation_page_first
_citation_page_last
_citation_journal_id_ASTM
primary 'Acta Crystallographica, Section B: Structural Science' 2003 59 324 336
ASBSDK
loop_
_publ_author_name
'Arakcheeva, A.V.'
'Chapuis, G.'
'Birkedal, H.'
'Pattison, P.'
'Grinevich, V.V.'
_cell_length_a 10.211(3)
_cell_length_b 10.211(3)
_cell_length_c 5.3064(10)
_cell_angle_alpha 90.
_cell_angle_beta 90.
_cell_angle_gamma 90.
_cell_volume 553.27
_cell_formula_units_Z 30
_symmetry_space_group_name_H-M 'P -4 21 m'
_symmetry_Int_Tables_number 113
loop_
_symmetry_equiv_pos_site_id
_symmetry_equiv_pos_as_xyz
1 '-y+1/2, -x+1/2, z'
2 'y, -x, -z'
3 'y+1/2, x+1/2, z'
4 '-y, x, -z'
5 'x+1/2, -y+1/2, -z'
6 '-x, -y, z'
7 '-x+1/2, y+1/2, -z'
8 'x, y, z'
loop_
_atom_type_symbol
_atom_type_oxidation_number
Ta0+ 0
loop_
_atom_site_label
_atom_site_type_symbol
_atom_site_symmetry_multiplicity
_atom_site_Wyckoff_symbol
_atom_site_fract_x
_atom_site_fract_y
_atom_site_fract_z
_atom_site_B_iso_or_equiv
_atom_site_occupancy
_atom_site_attached_hydrogens
Ta1 Ta0+ 2 c 0.5 0 0.228(2) 0.013(1) 1. 0
Ta2 Ta0+ 8 f 0.7598(3) 0.0677(3) 0.235(1) 0.0152(7) 1. 0
Ta3 Ta0+ 8 f 0.0343(3) 0.1267(4) 0.255(2) 0.029(1) 1. 0
Ta4 Ta0+ 4 e 0.1033(4) -.6033(4) 0.235(2) 0.0279(7) 1. 0
Ta5 Ta0+ 4 e 0.8142(6) 0.3142(6) 0.003(1) 0.020(1) 1. 0
Ta6 Ta0+ 4 e 0.8196(5) 0.3196(5) 0.491(1) 0.019(2) 1. 0
#End of TTdata_96594-ICSD