
#(C) 2018 by FIZ Karlsruhe - Leibniz Institute for Information Infrastructure.  All rights reserved.
data_26516-ICSD
_database_code_ICSD 26516
_audit_creation_date 1980-01-01
_audit_update_record 2000-12-16
_chemical_name_systematic 'Vanadium sulfide (3/1) - beta'
_chemical_formula_structural 'V3 S'
_chemical_formula_sum 'S1 V3'
_chemical_name_structure_type Ti3P
_exptl_crystal_density_diffrn 5.99
_publ_section_title 'The crystal structures of alpha-V3 S and beta-V3 S'
loop_
_citation_id
_citation_journal_full
_citation_year
_citation_journal_volume
_citation_page_first
_citation_page_last
_citation_journal_id_ASTM
primary 'Acta Crystallographica' 1959 12 1022 1027 ACCRA9
loop_
_publ_author_name
'Pedersen, B.'
'Gronvold, F.'
_cell_length_a 9.381
_cell_length_b 9.381
_cell_length_c 4.663
_cell_angle_alpha 90.
_cell_angle_beta 90.
_cell_angle_gamma 90.
_cell_volume 410.36
_cell_formula_units_Z 8
_symmetry_space_group_name_H-M 'P 42/n b c S'
_symmetry_Int_Tables_number 133
_refine_ls_R_factor_all 0.16
loop_
_symmetry_equiv_pos_site_id
_symmetry_equiv_pos_as_xyz
1 'y+1/2, -x+1/2, z+1/2'
2 'y+1/2, x+1/2, -z'
3 'y, x, z+1/2'
4 'y, -x, -z'
5 '-y+1/2, x+1/2, z+1/2'
6 '-y+1/2, -x+1/2, -z'
7 '-y, -x, z+1/2'
8 '-y, x, -z'
9 '-x+1/2, -y+1/2, -z+1/2'
10 'x+1/2, -y+1/2, z'
11 'x, -y, -z+1/2'
12 '-x, -y, z'
13 'x+1/2, y+1/2, -z+1/2'
14 '-x+1/2, y+1/2, z'
15 '-x, y, -z+1/2'
16 'x, y, z'
loop_
_atom_type_symbol
_atom_type_oxidation_number
V0+ 0.667
S2- -2
loop_
_atom_site_label
_atom_site_type_symbol
_atom_site_symmetry_multiplicity
_atom_site_Wyckoff_symbol
_atom_site_fract_x
_atom_site_fract_y
_atom_site_fract_z
_atom_site_B_iso_or_equiv
_atom_site_occupancy
_atom_site_attached_hydrogens
V1 V0+ 8 j 0.408 0.908 0 . 1. 0
V2 V0+ 8 j 0.2028 0.7028 0 . 1. 0
V3 V0+ 8 i 0.1486 0 0.75 . 1. 0
S1 S2- 8 h 0.2171 0 0.25 . 1. 0
#End of TTdata_26516-ICSD