
#(C) 2018 by FIZ Karlsruhe - Leibniz Institute for Information Infrastructure.  All rights reserved.
data_41148-ICSD
_database_code_ICSD 41148
_audit_creation_date 1999-11-30
_audit_update_record 2003-04-01
_chemical_name_systematic 'Calcium dithionate tetrahydrate - subcell'
_chemical_formula_structural 'Ca (S2 O6) (H2 O)4'
_chemical_formula_sum 'H8 Ca1 O10 S2'
_exptl_crystal_density_diffrn 2.18
_publ_section_title

;
Optical rotary dispersion and absolute optical chirality of strontium and
calcium dithionate tetrahydrate, Sr S2 O6 * 4(H2 O) and Ca S2 O6 * 4(H2 O)
;
loop_
_citation_id
_citation_journal_full
_citation_year
_citation_journal_volume
_citation_page_first
_citation_page_last
_citation_journal_id_ASTM
primary 'Acta Crystallographica, Section B: Structural Science' 1991 47 7 11
ASBSDK
loop_
_publ_author_name
'de Matos Gomes, E.'
_cell_length_a 6.198
_cell_length_b 6.198
_cell_length_c 18.72699
_cell_angle_alpha 90.
_cell_angle_beta 90.
_cell_angle_gamma 120.
_cell_volume 623.02
_cell_formula_units_Z 3
_symmetry_space_group_name_H-M 'P 64'
_symmetry_Int_Tables_number 172
_refine_ls_R_factor_all 0.04
loop_
_symmetry_equiv_pos_site_id
_symmetry_equiv_pos_as_xyz
1 'x-y, x, z+2/3'
2 'y, -x+y, z+1/3'
3 '-x, -y, z'
4 '-x+y, -x, z+2/3'
5 '-y, x-y, z+1/3'
6 'x, y, z'
loop_
_atom_type_symbol
_atom_type_oxidation_number
Ca2+ 2
S5+ 5
O2- -2
H1+ 1
loop_
_atom_site_label
_atom_site_type_symbol
_atom_site_symmetry_multiplicity
_atom_site_Wyckoff_symbol
_atom_site_fract_x
_atom_site_fract_y
_atom_site_fract_z
_atom_site_B_iso_or_equiv
_atom_site_occupancy
_atom_site_attached_hydrogens
Ca1 Ca2+ 3 a 0 0 0.6667 . 1. 0
S1 S5+ 6 c 0.3053 0.9362 0.4962 . 1. 0
O1 O2- 6 c 0.261 0.027 0.5633 . 1. 0
O2 O2- 6 c 0.274 0.043 0.431 . 1. 0
O3 O2- 6 c 0.184 0.667 0.4955 . 1. 0
O4 O2- 6 c 0.8115 0.5653 0.6271 . 1. 0
O5 O2- 6 c 0.5653 0.8115 0.7062 . 1. 0
#End of TTdata_41148-ICSD