
#(C) 2017 by FIZ Karlsruhe - Leibniz Institute for Information Infrastructure.  All rights reserved.
data_30905-ICSD
_database_code_ICSD 30905
_audit_creation_date 1986-04-14
_audit_update_record 2014-08-01
_chemical_name_systematic 'Gold telluride (1/2)'
_chemical_formula_structural 'Au Te2'
_chemical_formula_sum 'Au1 Te2'
_chemical_name_mineral Calaverite
_exptl_crystal_density_diffrn 9.37
_publ_section_title

;
Kristallchemie natuerlicher Telluride III: Die Kristallstruktur des Minerals
Calaverit, Au Te2
;
loop_
_citation_id
_citation_journal_full
_citation_year
_citation_journal_volume
_citation_page_first
_citation_page_last
_citation_journal_id_ASTM
primary 'Zeitschrift fuer Kristallographie (1979-2010)' 1984 169 227 236 ZEKRDZ
loop_
_publ_author_name
'Pertlik, F.'
_cell_length_a 8.76(1)
_cell_length_b 4.410(5)
_cell_length_c 10.15(1)
_cell_angle_alpha 90.
_cell_angle_beta 125.2(2)
_cell_angle_gamma 90.
_cell_volume 320.41
_cell_formula_units_Z 4
_symmetry_space_group_name_H-M 'P 1 c 1'
_symmetry_Int_Tables_number 7
_refine_ls_R_factor_all 0.082
loop_
_symmetry_equiv_pos_site_id
_symmetry_equiv_pos_as_xyz
1 'x, -y, z+1/2'
2 'x, y, z'
loop_
_atom_type_symbol
_atom_type_oxidation_number
Au0+ 0
Te0+ 0
loop_
_atom_site_label
_atom_site_type_symbol
_atom_site_symmetry_multiplicity
_atom_site_Wyckoff_symbol
_atom_site_fract_x
_atom_site_fract_y
_atom_site_fract_z
_atom_site_B_iso_or_equiv
_atom_site_occupancy
_atom_site_attached_hydrogens
Au1 Au0+ 2 a 0.7483 0.4938(6) 0.1243 . 1. 0
Au2 Au0+ 2 a 0.2460(5) -.0059(9) 0.8731(4) . 1. 0
Te1 Te0+ 2 a 0.9351(4) -.0138(9) 0.5728(5) . 1. 0
Te2 Te0+ 2 a 0.5585(5) 0.0520(9) 0.6747(5) . 1. 0
Te3 Te0+ 2 a 0.0575(5) 0.4464(9) 0.4209(5) . 1. 0
Te4 Te0+ 2 a 0.4363(5) 0.5585(9) 0.3235(5) . 1. 0
loop_
_atom_site_aniso_label
_atom_site_aniso_type_symbol
_atom_site_aniso_beta_11
_atom_site_aniso_beta_22
_atom_site_aniso_beta_33
_atom_site_aniso_beta_12
_atom_site_aniso_beta_13
_atom_site_aniso_beta_23
Au1 Au0+ 0.0051(3) 0.0289(10) 0.0062(2) -.0015(6) 0.0032(2) 0.0007(6)
Au2 Au0+ 0.0062(3) 0.0289(10) 0.0069(3) -.0015(4) 0.0035(2) 0.0012(4)
Te1 Te0+ 0.0057(7) 0.1011(63) 0.0074(5) 0.0040(13) 0.0046(5) -.0033(13)
Te2 Te0+ 0.0042(6) 0.0431(29) 0.0070(7) -.0038(9) 0.0032(5) -.0050(9)
Te3 Te0+ 0.0052(6) 0.0448(29) 0.0057(6) 0.0026(10) 0.0029(5) 0.0036(10)
Te4 Te0+ 0.0059(6) 0.0325(22) 0.0070(5) -.0059(9) 0.0037(4) -.0046(9)
#End of TTdata_30905-ICSD