
#(C) 2017 by FIZ Karlsruhe - Leibniz Institute for Information Infrastructure.  All rights reserved.
data_197175-ICSD
_database_code_ICSD 197175
_audit_creation_date 2017-08-01
_chemical_name_systematic 'Hafnium aluminium (3/2)'
_chemical_formula_structural 'Hf3 Al2'
_chemical_formula_sum 'Al2 Hf3'
_chemical_name_structure_type Al2Zr3(tP20)
_exptl_crystal_density_diffrn 9.94
_publ_section_title

;
Zum Aufbau einiger zu T(4)-B(3) homologer und quasihomologer Systeme.II Die
Systeme Titan-Aluminium, Zirkonium-Aluminium, Hafnium-Aluminium,
Molybdaen-Aluminium, und einige ternaere Systeme
;
loop_
_citation_id
_citation_journal_full
_citation_year
_citation_journal_volume
_citation_page_first
_citation_page_last
_citation_journal_id_ASTM
primary 'Zeitschrift fuer Metallkunde' 1962 53 548 561 ZEMTAE
loop_
_publ_author_name
'Poetzschke, Manfred'
'Schubert, Konrad'
_cell_length_a 7.549
_cell_length_b 7.549
_cell_length_c 6.909
_cell_angle_alpha 90.
_cell_angle_beta 90.
_cell_angle_gamma 90.
_cell_volume 393.73
_cell_formula_units_Z 4
_symmetry_space_group_name_H-M 'P 42/m n m'
_symmetry_Int_Tables_number 136
loop_
_symmetry_equiv_pos_site_id
_symmetry_equiv_pos_as_xyz
1 '-y+1/2, x+1/2, -z+1/2'
2 'y+1/2, -x+1/2, -z+1/2'
3 'y, x, -z'
4 '-y, -x, -z'
5 'y+1/2, -x+1/2, z+1/2'
6 '-y+1/2, x+1/2, z+1/2'
7 '-y, -x, z'
8 'y, x, z'
9 'x+1/2, -y+1/2, -z+1/2'
10 '-x+1/2, y+1/2, -z+1/2'
11 'x, y, -z'
12 '-x, -y, -z'
13 '-x+1/2, y+1/2, z+1/2'
14 'x+1/2, -y+1/2, z+1/2'
15 '-x, -y, z'
16 'x, y, z'
loop_
_atom_type_symbol
_atom_type_oxidation_number
Hf0+ 0
Al0+ 0
loop_
_atom_site_label
_atom_site_type_symbol
_atom_site_symmetry_multiplicity
_atom_site_Wyckoff_symbol
_atom_site_fract_x
_atom_site_fract_y
_atom_site_fract_z
_atom_site_B_iso_or_equiv
_atom_site_occupancy
_atom_site_attached_hydrogens
Hf1 Hf0+ 4 d 0 0.5 0.25 . 1. 0
Hf2 Hf0+ 4 g 0.2 0.8 0 . 1. 0
Hf3 Hf0+ 4 f 0.34 0.34 0 . 1. 0
Al1 Al0+ 8 j 0.125 0.125 0.21 . 1. 0
#End of TTdata_197175-ICSD