
#(C) 2017 by FIZ Karlsruhe - Leibniz Institute for Information Infrastructure.  All rights reserved.
data_410566-ICSD
_database_code_ICSD 410566
_audit_creation_date 2005-10-01
_audit_update_record 2007-08-01
_chemical_name_systematic 'Potassium mercury (1/11)'
_chemical_formula_structural 'K Hg11'
_chemical_formula_sum 'Hg11 K1'
_chemical_name_structure_type BaHg11
_exptl_crystal_density_diffrn 12.53
_publ_section_title

;
Darstellung, Strukturchemie und Magnetismus der Amalgame MHg11 (M: K, Rb, Ba,
Sr)
;
loop_
_citation_id
_citation_journal_full
_citation_year
_citation_journal_volume
_citation_page_first
_citation_page_last
_citation_journal_id_ASTM
primary 'Zeitschrift fuer Anorganische und Allgemeine Chemie (1950) (DE)' 1999
625 1073 1080 ZAACAB
loop_
_publ_author_name
'Biehl, E.'
'Deiseroth, H.J.'
_cell_length_a 9.6300(10)
_cell_length_b 9.6300(10)
_cell_length_c 9.6300(10)
_cell_angle_alpha 90.
_cell_angle_beta 90.
_cell_angle_gamma 90.
_cell_volume 893.06
_cell_formula_units_Z 3
_symmetry_space_group_name_H-M 'P m -3 m'
_symmetry_Int_Tables_number 221
_refine_ls_R_factor_all 0.1012
loop_
_symmetry_equiv_pos_site_id
_symmetry_equiv_pos_as_xyz
1 'z, y, -x'
2 'y, x, -z'
3 'x, z, -y'
4 'z, x, -y'
5 'y, z, -x'
6 'x, y, -z'
7 'z, -y, x'
8 'y, -x, z'
9 'x, -z, y'
10 'z, -x, y'
11 'y, -z, x'
12 'x, -y, z'
13 '-z, y, x'
14 '-y, x, z'
15 '-x, z, y'
16 '-z, x, y'
17 '-y, z, x'
18 '-x, y, z'
19 '-z, -y, -x'
20 '-y, -x, -z'
21 '-x, -z, -y'
22 '-z, -x, -y'
23 '-y, -z, -x'
24 '-x, -y, -z'
25 '-z, -y, x'
26 '-y, -x, z'
27 '-x, -z, y'
28 '-z, -x, y'
29 '-y, -z, x'
30 '-x, -y, z'
31 '-z, y, -x'
32 '-y, x, -z'
33 '-x, z, -y'
34 '-z, x, -y'
35 '-y, z, -x'
36 '-x, y, -z'
37 'z, -y, -x'
38 'y, -x, -z'
39 'x, -z, -y'
40 'z, -x, -y'
41 'y, -z, -x'
42 'x, -y, -z'
43 'z, y, x'
44 'y, x, z'
45 'x, z, y'
46 'z, x, y'
47 'y, z, x'
48 'x, y, z'
loop_
_atom_type_symbol
_atom_type_oxidation_number
Hg0+ 0
K0+ 0
loop_
_atom_site_label
_atom_site_type_symbol
_atom_site_symmetry_multiplicity
_atom_site_Wyckoff_symbol
_atom_site_fract_x
_atom_site_fract_y
_atom_site_fract_z
_atom_site_B_iso_or_equiv
_atom_site_occupancy
_atom_site_attached_hydrogens
Hg1 Hg0+ 1 b 0.5 0.5 0.5 0.052(2) 1 0
Hg2 Hg0+ 8 g 0.15367(15) 0.15367(15) 0.15367(15) 0.0491(7) 1 0
Hg3 Hg0+ 12 i 0.34527(12) 0.34527(12) 0. 0.0438(7) 1 0
Hg4 Hg0+ 12 j 0.26686(13) 0.26686(13) 0.5 0.0435(7) 1 0
K1 K0+ 3 d 0.5 0. 0. 0.027(3) 1 0
loop_
_atom_site_aniso_label
_atom_site_aniso_type_symbol
_atom_site_aniso_U_11
_atom_site_aniso_U_22
_atom_site_aniso_U_33
_atom_site_aniso_U_12
_atom_site_aniso_U_13
_atom_site_aniso_U_23
Hg1 Hg0+ 0.052(2) 0.052(2) 0.052(2) 0. 0. 0.
Hg2 Hg0+ 0.0491(7) 0.0491(7) 0.0491(7) 0.0036(5) 0.0036(5) 0.0036(5)
Hg3 Hg0+ 0.0395(7) 0.0395(7) 0.0525(11) 0.0057(5) 0. 0.
Hg4 Hg0+ 0.0432(8) 0.0432(8) 0.0441(10) 0.0013(6) 0. 0.
K1 K0+ 0.046(8) 0.018(3) 0.018(3) 0. 0. 0.
#End of TTdata_410566-ICSD