
#(C) 2018 by FIZ Karlsruhe - Leibniz Institute for Information Infrastructure.  All rights reserved.
data_106392-ICSD
_database_code_ICSD 106392
_audit_creation_date 2005-04-01
_audit_update_record 2011-08-01
_chemical_name_systematic 'Cerium germanium (3/4.7) - supercell'
_chemical_formula_structural 'Ce3 Ge4.7'
_chemical_formula_sum 'Ce3 Ge4.7'
_exptl_crystal_density_diffrn 6.65
_publ_section_title 'Crystal structure and properties of tetragonal Ce Ge1.6'
loop_
_citation_id
_citation_journal_full
_citation_year
_citation_journal_volume
_citation_page_first
_citation_page_last
_citation_journal_id_ASTM
primary 'Journal of the Less-Common Metals' 1990 167 53 63 JCOMAH
loop_
_publ_author_name
'Lambert-Andron, B.'
'Houssay, E.'
'Madar, R.'
'Hippert, F.'
'Pierre, J.'
'Auffret, S.'
_cell_length_a 12.669
_cell_length_b 12.669
_cell_length_c 14.208
_cell_angle_alpha 90.
_cell_angle_beta 90.
_cell_angle_gamma 90.
_cell_volume 2280.43
_cell_formula_units_Z 12
_symmetry_space_group_name_H-M 'I 41'
_symmetry_Int_Tables_number 80
_refine_ls_R_factor_all 0.075
loop_
_symmetry_equiv_pos_site_id
_symmetry_equiv_pos_as_xyz
1 'y, -x+1/2, z+1/4'
2 '-y, x+1/2, z+1/4'
3 '-x, -y, z'
4 'x, y, z'
5 'y+1/2, -x, z+3/4'
6 '-y+1/2, x, z+3/4'
7 '-x+1/2, -y+1/2, z+1/2'
8 'x+1/2, y+1/2, z+1/2'
loop_
_atom_type_symbol
_atom_type_oxidation_number
Ce0+ 0
Ge0+ 0
loop_
_atom_site_label
_atom_site_type_symbol
_atom_site_symmetry_multiplicity
_atom_site_Wyckoff_symbol
_atom_site_fract_x
_atom_site_fract_y
_atom_site_fract_z
_atom_site_B_iso_or_equiv
_atom_site_occupancy
_atom_site_attached_hydrogens
Ce1 Ce0+ 4 a 0 0 0 0.6 1. 0
Ce2 Ce0+ 8 b 0.3395(2) 0.0006(2) 0.9965(3) 0.58(1) 1. 0
Ce3 Ce0+ 8 b 0.0005(2) 0.3421(2) 0.9966(3) 0.6 1. 0
Ce4 Ce0+ 8 b 0.3370(3) 0.3361(3) 0.0055(2) 0.6 1. 0
Ce5 Ce0+ 8 b 0.3372(3) 0.6647(3) 0.0057(2) 0.6 1. 0
Ge1 Ge0+ 4 a 0 0 0.5503(6) 0.31(3) 1. 0
Ge2 Ge0+ 8 b 0.3338(3) 0.9999(4) 0.4151(6) 0.61(4) 1. 0
Ge3 Ge0+ 8 b 0.9989(4) 0.3189(4) 0.4131(4) 0.6 1. 0
Ge4 Ge0+ 8 b 0.3329(4) 0.6778(3) 0.5742(4) 0.3 1. 0
Ge5 Ge0+ 8 b 0.9990(4) 0.6366(5) 0.5969(4) 0.3 1. 0
Ge6 Ge0+ 8 b 0.3338(3) 0.9976(4) 0.5910(5) 0.3 1. 0
Ge7 Ge0+ 8 b 0.3358(4) 0.3197(3) 0.5763(4) 0.3 1. 0
Ge8 Ge0+ 8 b 0.320(2) 0.360(2) 0.412(2) 1.6(3) 0.25 0
Ge9 Ge0+ 8 b 0.318(2) 0.641(2) 0.403(2) 1.6 0.25 0
#End of TTdata_106392-ICSD