
#(C) 2018 by FIZ Karlsruhe - Leibniz Institute for Information Infrastructure.  All rights reserved.
data_80477-ICSD
_database_code_ICSD 80477
_audit_creation_date 1997-05-13
_chemical_name_systematic 'Silver(III) fluoride'
_chemical_formula_structural 'Ag F3'
_chemical_formula_sum 'Ag1 F3'
_chemical_name_structure_type AuF3
_exptl_crystal_density_diffrn 4.76
_publ_section_title

;
Silver trifluoride: preparation, crystal structure, some properties, and
comparison with Au F3
;
loop_
_citation_id
_citation_journal_full
_citation_year
_citation_journal_volume
_citation_page_first
_citation_page_last
_citation_journal_id_ASTM
primary 'Journal of the American Chemical Society' 1991 113 4192 4198 JACSAT
loop_
_publ_author_name
'Zemva, B.'
'Lutar, K.'
'Jesih, A.'
'Casteel, W.J.jr.'
'Wilkinson, A.P.'
'Cox, D.E.'
'von Dreele, R.B.'
'Borrmann, H.'
'Bartlett, N.'
_cell_length_a 5.0782(2)
_cell_length_b 5.0782(2)
_cell_length_c 15.4523(8)
_cell_angle_alpha 90.
_cell_angle_beta 90.
_cell_angle_gamma 120.
_cell_volume 345.1
_cell_formula_units_Z 6
_symmetry_space_group_name_H-M 'P 61 2 2'
_symmetry_Int_Tables_number 178
_refine_ls_R_factor_all 0.038
loop_
_symmetry_equiv_pos_site_id
_symmetry_equiv_pos_as_xyz
1 'x, x-y, -z'
2 '-x+y, y, -z+1/2'
3 '-y, -x, -z'
4 '-x, -x+y, -z+2/3'
5 'x-y, -y, -z'
6 'y, x, -z+1/3'
7 'x-y, x, z'
8 'y, -x+y, z'
9 '-x, -y, z+1/2'
10 '-x+y, -x, z+2/3'
11 '-y, x-y, z+1/3'
12 'x, y, z'
loop_
_atom_type_symbol
_atom_type_oxidation_number
Ag3+ 3
F1- -1
loop_
_atom_site_label
_atom_site_type_symbol
_atom_site_symmetry_multiplicity
_atom_site_Wyckoff_symbol
_atom_site_fract_x
_atom_site_fract_y
_atom_site_fract_z
_atom_site_B_iso_or_equiv
_atom_site_occupancy
_atom_site_attached_hydrogens
Ag1 Ag3+ 6 b 0.2694(4) 0.5388(8) 0.25 0.0112(9) 1. 0
F1 F1- 6 a 0.2176(8) 0 0 0.0233(12) 1. 0
F2 F1- 12 c 0.8401(7) 0.3186(10) 0.0054(2) 0.0350(11) 1. 0
#End of TTdata_80477-ICSD