
#(C) 2017 by FIZ Karlsruhe - Leibniz Institute for Information Infrastructure.  All rights reserved.
data_109036-ICSD
_database_code_ICSD 109036
_audit_creation_date 2007-04-01
_chemical_name_systematic 'Silicon - XII, HP'
_chemical_formula_structural Si
_chemical_formula_sum Si1
_exptl_crystal_density_diffrn 2.81
_cell_measurement_pressure 8200000.
_publ_section_title
'Reversible pressure-induced transition between metastable phases of silicon'
loop_
_citation_id
_citation_journal_full
_citation_year
_citation_journal_volume
_citation_page_first
_citation_page_last
_citation_journal_id_ASTM
primary 'Physical Review, Serie 3. B - Condensed Matter (18,1978-)' 1994 50
13043 13046 PRBMDO
loop_
_publ_author_name
'Crain, J.'
'Ackland, J.'
'MacLean, J.R.'
'Piltz, R.O.'
'Hatton, P.D.'
'Pawley, G.S.'
_cell_length_a 5.609(3)
_cell_length_b 5.609(3)
_cell_length_c 5.609(3)
_cell_angle_alpha 110.07(3)
_cell_angle_beta 110.07(3)
_cell_angle_gamma 110.07(3)
_cell_volume 132.75
_cell_formula_units_Z 8
_symmetry_space_group_name_H-M 'R -3 R'
_symmetry_Int_Tables_number 148
loop_
_symmetry_equiv_pos_site_id
_symmetry_equiv_pos_as_xyz
1 '-z, -x, -y'
2 '-y, -z, -x'
3 '-x, -y, -z'
4 'z, x, y'
5 'y, z, x'
6 'x, y, z'
loop_
_atom_type_symbol
_atom_type_oxidation_number
Si0+ 0
loop_
_atom_site_label
_atom_site_type_symbol
_atom_site_symmetry_multiplicity
_atom_site_Wyckoff_symbol
_atom_site_fract_x
_atom_site_fract_y
_atom_site_fract_z
_atom_site_B_iso_or_equiv
_atom_site_occupancy
_atom_site_attached_hydrogens
Si1 Si0+ 2 c 0.2921(8) 0.2921 0.2921 . 1. 0
Si2 Si0+ 6 f 0.4580(8) 0.9631(7) 0.2645(6) . 1. 0
#End of TTdata_109036-ICSD