
#(C) 2017 by FIZ Karlsruhe - Leibniz Institute for Information Infrastructure.  All rights reserved.
data_86207-ICSD
_database_code_ICSD 86207
_audit_creation_date 1999-11-30
_audit_update_record 2007-08-01
_chemical_name_systematic 'Silicon oxide (32/64)'
_chemical_formula_structural 'Si32 O64'
_chemical_formula_sum 'O64 Si32'
_chemical_name_mineral 'Zeolite CIT-5'
_exptl_crystal_density_diffrn 1.82
_publ_section_title

;
Synthesis, characterization, and structure solution of CIT-5, a new,
high-silica, extra-large-pore molecular sieve
;
loop_
_citation_id
_citation_journal_full
_citation_year
_citation_journal_volume
_citation_page_first
_citation_page_last
_citation_journal_id_ASTM
primary 'Journal of Physical Chemistry B' 1998 102 7139 7147 JPCBFK
loop_
_publ_author_name
'Yoshikawa, M.'
'Wagner, P.'
'Lovallo, M.'
'Tsuji, K.'
'Takewaki, T.'
'Chen, C.-Y.'
'Beck, L.W.'
'Jones, C.'
'Tsapatsis, M.'
'Zones, S.I.'
'Davis, M.E.'
_cell_length_a 13.6738(8)
_cell_length_b 5.0216(3)
_cell_length_c 25.4883(7)
_cell_angle_alpha 90.
_cell_angle_beta 90.
_cell_angle_gamma 90.
_cell_volume 1750.14
_cell_formula_units_Z 1
_symmetry_space_group_name_H-M 'P m n 21'
_symmetry_Int_Tables_number 31
_refine_ls_R_factor_all 0.054
loop_
_symmetry_equiv_pos_site_id
_symmetry_equiv_pos_as_xyz
1 'x+1/2, -y, z+1/2'
2 '-x+1/2, -y, z+1/2'
3 '-x, y, z'
4 'x, y, z'
loop_
_atom_type_symbol
_atom_type_oxidation_number
Si4+ 4
O2- -2
loop_
_atom_site_label
_atom_site_type_symbol
_atom_site_symmetry_multiplicity
_atom_site_Wyckoff_symbol
_atom_site_fract_x
_atom_site_fract_y
_atom_site_fract_z
_atom_site_B_iso_or_equiv
_atom_site_occupancy
_atom_site_attached_hydrogens
Si1 Si4+ 4 b 0.110(1) 0.2980(4) 0.0318(6) 0.019(1) 1. 0
Si2 Si4+ 2 a 0 0.7300(5) 0.2702(7) 0.048(9) 1. 0
Si3 Si4+ 4 b 0.2868(9) 0.733(33) 0.1883(5) 0.010(3) 1. 0
Si4 Si4+ 2 a 0 0.2360(4) 0.2055(6) 0.041(2) 1. 0
Si5 Si4+ 4 b 0.1956(20) 0.250(4) 0.1414(5) 0.017(2) 1. 0
Si6 Si4+ 4 b 0.3884(9) 0.2082(34) 0.4634(5) 0.027(5) 1. 0
Si7 Si4+ 4 b 0.3001(12) 0.300(4) 0.3523(6) 0.034(8) 1. 0
Si8 Si4+ 2 a 0.5 0.764(4) 0.2248(5) 0.016(7) 1. 0
Si9 Si4+ 2 a 0.5 0.264(5) 0.2912(7) 0.009(6) 1. 0
Si10 Si4+ 4 b 0.2064(12) 0.789(4) 0.3076(6) 0.038(8) 1. 0
O1 O2- 4 b 0.1258(22) 0.091(32) -.0139(6) 0.027(8) 1. 0
O2 O2- 4 b 0.1834(7) 0.242(4) 0.0794(33) 0.025(6) 1. 0
O3 O2- 4 b 0.1391(20) 0.5933(32) 0.0092(7) 0.013(5) 1. 0
O4 O2- 2 a 0 0.303(9) 0.0518(10) 0.041(9) 1. 0
O5 O2- 2 a 0 0.425(4) 0.2541(7) 0.039(5) 1. 0
O6 O2- 4 b 0.0926(6) 0.782(4) 0.3075(7) 0.049(7) 1. 0
O7 O2- 2 a 0 -.071(4) 0.2216(7) 0.005(5) 1. 0
O8 O2- 4 b 0.2742(13) 0.465(5) 0.1581(8) 0.029(2) 1. 0
O9 O2- 4 b 0.4029(5) 0.796(4) 0.1906(6) 0.003(5) 1. 0
O10 O2- 4 b 0.2337(14) -.036(4) 0.1584(8) 0.008(4) 1. 0
O11 O2- 4 b 0.2433(16) 0.728(5) 0.2476(5) 0.023(6) 1. 0
O12 O2- 4 b 0.9053(6) 0.3024(34) 0.1694(5) 0.006(6) 1. 0
O13 O2- 4 b 0.3164(13) 0.238(5) 0.4141(5) 0.065(5) 1. 0
O14 O2- 2 a 0.5 0.241(8) 0.4453(10) 0.017(9) 1. 0
O15 O2- 4 b 0.2333(14) 0.083(4) 0.3260(8) 0.037(2) 1. 0
O16 O2- 4 b 0.4043(6) 0.303(5) 0.3256(6) 0.044(2) 1. 0
O17 O2- 4 b 0.2529(15) 0.584(4) 0.3468(7) 0.039(3) 1. 0
O18 O2- 2 a 0.5 -.037(5) 0.2716(8) 0.057(7) 1. 0
O19 O2- 2 a 0.5 0.464(4) 0.2446(8) 0.003(1) 1. 0
#End of TTdata_86207-ICSD