
#(C) 2017 by FIZ Karlsruhe - Leibniz Institute for Information Infrastructure.  All rights reserved.
data_66761-ICSD
_database_code_ICSD 66761
_audit_creation_date 1995-10-17
_audit_update_record 2008-08-01
_chemical_name_systematic 'Chromium arsenide (4/3)'
_chemical_formula_structural 'Cr4 As3'
_chemical_formula_sum 'As3 Cr4'
_exptl_crystal_density_diffrn 6.78
_publ_section_title 'The crystal structure of Cr4 As3'
loop_
_citation_id
_citation_journal_full
_citation_year
_citation_journal_volume
_citation_page_first
_citation_page_last
_citation_journal_id_ASTM
primary 'Monatshefte fuer Chemie' 1970 101 1696 1703 MOCHAP
loop_
_publ_author_name
'Baurecht, H.E.'
'Boller, H.'
'Nowotny, H.N.'
_cell_length_a 13.168(10)
_cell_length_b 3.542(3)
_cell_length_c 9.302(9)
_cell_angle_alpha 90.
_cell_angle_beta 102.19
_cell_angle_gamma 90.
_cell_volume 424.07
_cell_formula_units_Z 4
_symmetry_space_group_name_H-M 'C 1 m 1'
_symmetry_Int_Tables_number 8
_refine_ls_R_factor_all 0.11
loop_
_symmetry_equiv_pos_site_id
_symmetry_equiv_pos_as_xyz
1 'x, -y, z'
2 'x, y, z'
3 'x+1/2, -y+1/2, z'
4 'x+1/2, y+1/2, z'
loop_
_atom_type_symbol
_atom_type_oxidation_number
Cr0+ 0
As0+ 0
loop_
_atom_site_label
_atom_site_type_symbol
_atom_site_symmetry_multiplicity
_atom_site_Wyckoff_symbol
_atom_site_fract_x
_atom_site_fract_y
_atom_site_fract_z
_atom_site_B_iso_or_equiv
_atom_site_occupancy
_atom_site_attached_hydrogens
Cr1 Cr0+ 2 a 0 0 0 0.49 1. 0
Cr2 Cr0+ 2 a 0.162 0.5 0.444 0.873 1. 0
Cr3 Cr0+ 2 a -.144 0.5 -.448 0.602 1. 0
Cr4 Cr0+ 2 a 0.226 0 0.173 0.835 1. 0
Cr5 Cr0+ 2 a -.214 0 -.16 0.391 1. 0
Cr6 Cr0+ 2 a 0.437 0 0.2825 0.253 1. 0
Cr7 Cr0+ 2 a -.4305 0 -.286 1.238 1. 0
Cr8 Cr0+ 2 a 0.0045 0 0.4995 0.303 1. 0
As1 As0+ 2 a 0.066 0 0.2625 1.384 1. 0
As2 As0+ 2 a -.063 0 -.2755 0.033 1. 0
As3 As0+ 2 a 0.3675 0 0.018 1.23 1. 0
As4 As0+ 2 a -.355 0 -.014 0.648 1. 0
As5 As0+ 2 a 0.3225 0.5 0.347 1.608 1. 0
As6 As0+ 2 a -.31 0.5 -.353 0.089 1. 0
#End of TTdata_66761-ICSD