
#(C) 2017 by FIZ Karlsruhe - Leibniz Institute for Information Infrastructure.  All rights reserved.
data_30694-ICSD
_database_code_ICSD 30694
_audit_creation_date 1984-12-31
_audit_update_record 2003-10-01
_chemical_name_systematic 'Silicon phosphide (1/2)'
_chemical_formula_structural 'Si P2'
_chemical_formula_sum 'P2 Si1'
_chemical_name_structure_type Pyrite-FeS2(cP12)
_exptl_crystal_density_diffrn 3.22
_publ_section_title

;
Pyrite-type silicon diphosphide p-Si P2: Structural parameters and valence
electron density distribution
;
loop_
_citation_id
_citation_journal_full
_citation_year
_citation_journal_volume
_citation_page_first
_citation_page_last
_citation_journal_id_ASTM
primary 'Zeitschrift fuer Kristallographie (1979-2010)' 1984 167 1 12 ZEKRDZ
loop_
_publ_author_name
'Chattopadhyay, T.K.'
'von Schnering, H.G.'
_cell_length_a 5.706(3)
_cell_length_b 5.706(3)
_cell_length_c 5.706(3)
_cell_angle_alpha 90.
_cell_angle_beta 90.
_cell_angle_gamma 90.
_cell_volume 185.78
_cell_formula_units_Z 4
_symmetry_space_group_name_H-M 'P a -3'
_symmetry_Int_Tables_number 205
_refine_ls_R_factor_all 0.076
loop_
_symmetry_equiv_pos_site_id
_symmetry_equiv_pos_as_xyz
1 '-z+1/2, x+1/2, y'
2 'z+1/2, x, -y+1/2'
3 'z, -x+1/2, y+1/2'
4 '-z, -x, -y'
5 'y, -z+1/2, x+1/2'
6 '-y+1/2, z+1/2, x'
7 'y+1/2, z, -x+1/2'
8 '-y, -z, -x'
9 'x+1/2, y, -z+1/2'
10 'x, -y+1/2, z+1/2'
11 '-x+1/2, y+1/2, z'
12 '-x, -y, -z'
13 'z+1/2, -x+1/2, -y'
14 '-z+1/2, -x, y+1/2'
15 '-z, x+1/2, -y+1/2'
16 'z, x, y'
17 '-y, z+1/2, -x+1/2'
18 'y+1/2, -z+1/2, -x'
19 '-y+1/2, -z, x+1/2'
20 'y, z, x'
21 '-x+1/2, -y, z+1/2'
22 '-x, y+1/2, -z+1/2'
23 'x+1/2, -y+1/2, -z'
24 'x, y, z'
loop_
_atom_type_symbol
_atom_type_oxidation_number
Si4+ 4
P2- -2
loop_
_atom_site_label
_atom_site_type_symbol
_atom_site_symmetry_multiplicity
_atom_site_Wyckoff_symbol
_atom_site_fract_x
_atom_site_fract_y
_atom_site_fract_z
_atom_site_B_iso_or_equiv
_atom_site_occupancy
_atom_site_attached_hydrogens
Si1 Si4+ 4 a 0 0 0 . 1. 0
P1 P2- 8 c 0.39075(9) 0.39075(9) 0.39075(9) . 1. 0
loop_
_atom_site_aniso_label
_atom_site_aniso_type_symbol
_atom_site_aniso_U_11
_atom_site_aniso_U_22
_atom_site_aniso_U_33
_atom_site_aniso_U_12
_atom_site_aniso_U_13
_atom_site_aniso_U_23
Si1 Si4+ 0.0053(5) 0.0053(5) 0.0053(5) 0.0002(2) 0.0002(2) 0.0002(2)
P1 P2- 0.0048(5) 0.0048(5) 0.0048(5) -0.0002(1) -0.0002(1) -0.0002(1)
#End of TTdata_30694-ICSD