
#(C) 2017 by FIZ Karlsruhe - Leibniz Institute for Information Infrastructure.  All rights reserved.
data_24499-ICSD
_database_code_ICSD 24499
_audit_creation_date 1980-01-01
_chemical_name_systematic 'Hydrogen arsenide'
_chemical_formula_structural 'As H3'
_chemical_formula_sum 'H3 As1'
_chemical_name_structure_type PH3
_exptl_crystal_density_diffrn 1.97
_cell_measurement_temperature 103.
_publ_section_title

;
La struttura dell'idrogeno fosforato (P H3) e dell'idrogeno arsenicale (As H3)
;
loop_
_citation_id
_citation_journal_full
_citation_year
_citation_journal_volume
_citation_page_first
_citation_page_last
_citation_journal_id_ASTM
primary 'Gazzetta Chimica Italiana' 1930 60 851 859 GCITA9
loop_
_publ_author_name
'Natta, G.'
'Casazza, E.'
_cell_length_a 6.40(2)
_cell_length_b 6.40(2)
_cell_length_c 6.40(2)
_cell_angle_alpha 90.
_cell_angle_beta 90.
_cell_angle_gamma 90.
_cell_volume 262.14
_cell_formula_units_Z 4
_symmetry_space_group_name_H-M 'P 42 3 2'
_symmetry_Int_Tables_number 208
loop_
_symmetry_equiv_pos_site_id
_symmetry_equiv_pos_as_xyz
1 'z+1/2, y+1/2, -x+1/2'
2 'y+1/2, x+1/2, -z+1/2'
3 'x+1/2, z+1/2, -y+1/2'
4 '-z, -x, y'
5 '-y, -z, x'
6 '-x, -y, z'
7 '-z+1/2, y+1/2, x+1/2'
8 '-y+1/2, x+1/2, z+1/2'
9 '-x+1/2, z+1/2, y+1/2'
10 'z, -x, -y'
11 'y, -z, -x'
12 'x, -y, -z'
13 'z+1/2, -y+1/2, x+1/2'
14 'y+1/2, -x+1/2, z+1/2'
15 'x+1/2, -z+1/2, y+1/2'
16 '-z, x, -y'
17 '-y, z, -x'
18 '-x, y, -z'
19 '-z+1/2, -y+1/2, -x+1/2'
20 '-y+1/2, -x+1/2, -z+1/2'
21 '-x+1/2, -z+1/2, -y+1/2'
22 'z, x, y'
23 'y, z, x'
24 'x, y, z'
loop_
_atom_type_symbol
_atom_type_oxidation_number
As3- -3
H1+ 1
loop_
_atom_site_label
_atom_site_type_symbol
_atom_site_symmetry_multiplicity
_atom_site_Wyckoff_symbol
_atom_site_fract_x
_atom_site_fract_y
_atom_site_fract_z
_atom_site_B_iso_or_equiv
_atom_site_occupancy
_atom_site_attached_hydrogens
As1 As3- 4 b 0.25 0.25 0.25 . 1. 0
H1 H1+ 12 j 0.184 0.5 0 . 1. 0
#End of TTdata_24499-ICSD