
#(C) 2018 by FIZ Karlsruhe - Leibniz Institute for Information Infrastructure.  All rights reserved.
data_418095-ICSD
_database_code_ICSD 418095
_audit_creation_date 2010-02-01
_chemical_name_systematic 'Triammonium heptafluorozirconate'
_chemical_formula_structural '(N H4)3 (Zr F7)'
_chemical_formula_sum 'H12 F7 N3 Zr1'
_exptl_crystal_density_diffrn 2.21
_cell_measurement_temperature 297.
_publ_section_title

;
Orientational disorder and crystal structures  of (N H4)3 Zr F7 and (N H4)3
(Nb O F6)
;
loop_
_citation_id
_citation_journal_full
_citation_year
_citation_journal_volume
_citation_page_first
_citation_page_last
_citation_journal_id_ASTM
primary 'Zhurnal Strukturnoi Khimii' 2008 49 500 506 ZSTKAI
loop_
_publ_author_name
'Udovenko, A.A.'
'Laptash, N.M.'
_cell_length_a 9.4185(3)
_cell_length_b 9.4185(3)
_cell_length_c 9.4185(3)
_cell_angle_alpha 90.
_cell_angle_beta 90.
_cell_angle_gamma 90.
_cell_volume 835.5
_cell_formula_units_Z 4
_symmetry_space_group_name_H-M 'F 2 3'
_symmetry_Int_Tables_number 196
_refine_ls_R_factor_all 0.0145
loop_
_symmetry_equiv_pos_site_id
_symmetry_equiv_pos_as_xyz
1 '-z, -x, y'
2 '-y, -z, x'
3 '-x, -y, z'
4 '-z, x, -y'
5 '-y, z, -x'
6 '-x, y, -z'
7 'z, -x, -y'
8 'y, -z, -x'
9 'x, -y, -z'
10 'z, x, y'
11 'y, z, x'
12 'x, y, z'
13 '-z, -x+1/2, y+1/2'
14 '-y, -z+1/2, x+1/2'
15 '-x, -y+1/2, z+1/2'
16 '-z, x+1/2, -y+1/2'
17 '-y, z+1/2, -x+1/2'
18 '-x, y+1/2, -z+1/2'
19 'z, -x+1/2, -y+1/2'
20 'y, -z+1/2, -x+1/2'
21 'x, -y+1/2, -z+1/2'
22 'z, x+1/2, y+1/2'
23 'y, z+1/2, x+1/2'
24 'x, y+1/2, z+1/2'
25 '-z+1/2, -x, y+1/2'
26 '-y+1/2, -z, x+1/2'
27 '-x+1/2, -y, z+1/2'
28 '-z+1/2, x, -y+1/2'
29 '-y+1/2, z, -x+1/2'
30 '-x+1/2, y, -z+1/2'
31 'z+1/2, -x, -y+1/2'
32 'y+1/2, -z, -x+1/2'
33 'x+1/2, -y, -z+1/2'
34 'z+1/2, x, y+1/2'
35 'y+1/2, z, x+1/2'
36 'x+1/2, y, z+1/2'
37 '-z+1/2, -x+1/2, y'
38 '-y+1/2, -z+1/2, x'
39 '-x+1/2, -y+1/2, z'
40 '-z+1/2, x+1/2, -y'
41 '-y+1/2, z+1/2, -x'
42 '-x+1/2, y+1/2, -z'
43 'z+1/2, -x+1/2, -y'
44 'y+1/2, -z+1/2, -x'
45 'x+1/2, -y+1/2, -z'
46 'z+1/2, x+1/2, y'
47 'y+1/2, z+1/2, x'
48 'x+1/2, y+1/2, z'
loop_
_atom_type_symbol
_atom_type_oxidation_number
Zr4+ 4
N3- -3
F1- -1
H1+ 1
loop_
_atom_site_label
_atom_site_type_symbol
_atom_site_symmetry_multiplicity
_atom_site_Wyckoff_symbol
_atom_site_fract_x
_atom_site_fract_y
_atom_site_fract_z
_atom_site_B_iso_or_equiv
_atom_site_occupancy
_atom_site_attached_hydrogens
Zr1 Zr4+ 4 a 0. 0. 0. 0.02740(1) 1 0
N1 N3- 4 c 0.25 0.25 0.25 0.0480(3) 1 0
N2 N3- 4 d 0.25 0.25 0.75 0.0803(7) 1 0
N3 N3- 4 b 0.5 0.5 0.5 0.0676(3) 1 0
F1 F1- 24 f 0. 0. 0.20951(8) 0.1051(5) 0.5 0
F2 F1- 48 h 0.0130(2) 0.20564(19) 0.0642(2) 0.0563(6) 0.1667 0
F3 F1- 48 h 0.1313(2) 0.1886(2) 0.01210(14) 0.0525(4) 0.1667 0
H1 H1+ 16 e 0.1962 0.1962 0.1962 0.09 1 0
H2 H1+ 16 e 0.1949 0.1949 0.8051 0.092 1 0
H3 H1+ 48 h 0.424 0.462 0.462 0.12 0.08333 0
H4 H1+ 48 h 0.576 0.462 0.462 0.12 0.08333 0
H5 H1+ 48 h 0.5 0.598 0.484 0.056 0.08333 0
H6 H1+ 48 h 0.5 0.482 0.598 0.056 0.08333 0
loop_
_atom_site_aniso_label
_atom_site_aniso_type_symbol
_atom_site_aniso_U_11
_atom_site_aniso_U_22
_atom_site_aniso_U_33
_atom_site_aniso_U_12
_atom_site_aniso_U_13
_atom_site_aniso_U_23
Zr1 Zr4+ 0.02740(1) 0.02740(1) 0.02740(1) 0. 0. 0.
N1 N3- 0.0480(3) 0.0480(3) 0.0480(3) 0. 0. 0.
N2 N3- 0.0803(7) 0.0803(7) 0.0803(7) 0. 0. 0.
N3 N3- 0.0676(3) 0.0676(3) 0.0676(3) 0. 0. 0.
F1 F1- 0.0967(8) 0.1947(14) 0.0237(2) 0.0488(9) 0. 0.
F2 F1- 0.0553(11) 0.0369(6) 0.0766(12) -0.0098(8) 0.0104(12) -0.0136(6)
F3 F1- 0.0676(8) 0.0584(7) 0.0315(7) -0.0280(6) 0.0006(8) -0.0072(6)
#End of TTdata_418095-ICSD