
#(C) 2017 by FIZ Karlsruhe - Leibniz Institute for Information Infrastructure.  All rights reserved.
data_95440-ICSD
_database_code_ICSD 95440
_audit_creation_date 2003-10-01
_chemical_name_systematic 'Cobalt dioxide'
_chemical_formula_structural 'Co O2'
_chemical_formula_sum 'Co1 O2'
_exptl_crystal_density_diffrn 2.06
_publ_section_title
'Modulated structure of the thermoelectric compound (Ca2 Co O3)0.62 Co O2'
loop_
_citation_id
_citation_journal_full
_citation_year
_citation_journal_volume
_citation_page_first
_citation_page_last
_citation_journal_id_ASTM
primary 'Journal of the Physical Society of Japan' 2002 71 491 497 JUPSAU
loop_
_publ_author_name
'Miyazaki, Y.'
'Onoda, M.'
'Oku, T.'
'Kikuchi, M.'
'Ishii, Y.'
'Ono, Y.'
'Morii, Y.'
'Kajitani, T.'
_cell_length_a 4.8339(3)
_cell_length_b 2.8238(2)
_cell_length_c 10.8436(7)
_cell_angle_alpha 90
_cell_angle_beta 98.14(1)
_cell_angle_gamma 90
_cell_volume 146.52
_cell_formula_units_Z 2
_symmetry_space_group_name_H-M 'C 1 m 1'
_symmetry_Int_Tables_number 8
_refine_ls_R_factor_all 0.106
loop_
_symmetry_equiv_pos_site_id
_symmetry_equiv_pos_as_xyz
1 'x, -y, z'
2 'x, y, z'
3 'x+1/2, -y+1/2, z'
4 'x+1/2, y+1/2, z'
loop_
_atom_type_symbol
_atom_type_oxidation_number
Co4+ 4
O2- -2
loop_
_atom_site_label
_atom_site_type_symbol
_atom_site_symmetry_multiplicity
_atom_site_Wyckoff_symbol
_atom_site_fract_x
_atom_site_fract_y
_atom_site_fract_z
_atom_site_B_iso_or_equiv
_atom_site_occupancy
_atom_site_attached_hydrogens
Co1 Co4+ 2 a 0 0 0 0.5 1. 0
O1 O2- 2 a 0.363(13) 0 0.084(5) 0.5 1. 0
O2 O2- 2 a 0.636(13) 0 0.896(5) 0.5 1. 0
#End of TTdata_95440-ICSD