
#(C) 2018 by FIZ Karlsruhe - Leibniz Institute for Information Infrastructure.  All rights reserved.
data_66662-ICSD
_database_code_ICSD 66662
_audit_creation_date 1994-06-30
_audit_update_record 2012-02-01
_chemical_name_systematic 'Technetium arsenide (2/3)'
_chemical_formula_structural 'Tc2 As3'
_chemical_formula_sum 'As3 Tc2'
_chemical_name_structure_type Tc2As3
_exptl_crystal_density_diffrn 8.58
_publ_section_title

;
Technetium arsenide Tc2 As3: A compound with a superstructure of Mo2 As3
attributed to differences in metalmetal bonding
;
loop_
_citation_id
_citation_journal_full
_citation_year
_citation_journal_volume
_citation_page_first
_citation_page_last
_citation_journal_id_ASTM
primary 'Journal of Solid State Chemistry' 1985 57 59 67 JSSCBI
loop_
_publ_author_name
'Jeitschko, W.'
'Dietrich, L.H.'
_cell_length_a 6.574(1)
_cell_length_b 6.632(1)
_cell_length_c 8.023(2)
_cell_angle_alpha 95.69(1)
_cell_angle_beta 102.03(1)
_cell_angle_gamma 104.31(2)
_cell_volume 327.28
_cell_formula_units_Z 4
_symmetry_space_group_name_H-M 'P -1'
_symmetry_Int_Tables_number 2
_refine_ls_R_factor_all 0.053
loop_
_symmetry_equiv_pos_site_id
_symmetry_equiv_pos_as_xyz
1 '-x, -y, -z'
2 'x, y, z'
loop_
_atom_type_symbol
_atom_type_oxidation_number
Tc3+ 3.5
As2- -2
As3- -3
As2- -2
loop_
_atom_site_label
_atom_site_type_symbol
_atom_site_symmetry_multiplicity
_atom_site_Wyckoff_symbol
_atom_site_fract_x
_atom_site_fract_y
_atom_site_fract_z
_atom_site_B_iso_or_equiv
_atom_site_occupancy
_atom_site_attached_hydrogens
Tc1 Tc3+ 2 i 0.91439(10) 0.12485(10) 0.62598(8) 0.121(7) 1. 0
Tc2 Tc3+ 2 i 0.46559(10) 0.13475(10) 0.63453(8) 0.120(7) 1. 0
Tc3 Tc3+ 2 i 0.62816(10) 0.57273(10) 0.86623(8) 0.123(7) 1. 0
Tc4 Tc3+ 2 i 0.08892(10) 0.57575(10) 0.85861(8) 0.134(7) 1. 0
As1 As2- 2 i 0.54274(14) 0.20064(14) 0.96148(11) 0.181(9) 1. 0
As2 As2- 2 i 0.03250(14) 0.18744(14) 0.95013(11) 0.161(9) 1. 0
As3 As3- 2 i 0.62869(14) 0.84500(14) 0.68028(11) 0.143(9) 1. 0
As4 As3- 2 i 0.13992(14) 0.86792(13) 0.68559(11) 0.160(9) 1. 0
As5 As2- 2 i 0.76438(13) 0.43386(13) 0.61596(11) 0.135(9) 1. 0
As6 As2- 2 i 0.26369(15) 0.41081(14) 0.64958(12) 0.229(9) 1. 0
#End of TTdata_66662-ICSD