
#(C) 2018 by FIZ Karlsruhe - Leibniz Institute for Information Infrastructure.  All rights reserved.
data_406526-ICSD
_database_code_ICSD 406526
_audit_creation_date 2003-10-01
_audit_update_record 2011-02-01
_chemical_name_systematic 'Iridium aluminium (1/2.75)'
_chemical_formula_structural 'Ir Al2.75'
_chemical_formula_sum 'Al2.75 Ir1'
_exptl_crystal_density_diffrn 7.86
_publ_section_title

;
The crystal structure of the binary iridium-aluminium IrAl2.75 and
rhodium-aluminium RhAl2.63 phase
;
loop_
_citation_id
_citation_journal_full
_citation_year
_citation_journal_volume
_citation_page_first
_citation_page_last
_citation_journal_id_ASTM
primary 'Zeitschrift fuer Kristallographie (1979-2010)' 1997 212 439 444 ZEKRDZ
loop_
_publ_author_name
'Grin', Yu. (Hrin', Yu.'
' Grin, Yu.'
' Hrin, Yu.)'
'Peters, K.'
'Burkhardt, U.'
'Gotzmann, K.'
'Ellner, M.'
_cell_length_a 7.6740(10)
_cell_length_b 7.6740(10)
_cell_length_c 7.6740(10)
_cell_angle_alpha 90
_cell_angle_beta 90
_cell_angle_gamma 90
_cell_volume 451.92
_cell_formula_units_Z 8
_symmetry_space_group_name_H-M 'P 2 3'
_symmetry_Int_Tables_number 195
_refine_ls_R_factor_all 0.053
loop_
_symmetry_equiv_pos_site_id
_symmetry_equiv_pos_as_xyz
1 '-z, -x, y'
2 '-y, -z, x'
3 '-x, -y, z'
4 '-z, x, -y'
5 '-y, z, -x'
6 '-x, y, -z'
7 'z, -x, -y'
8 'y, -z, -x'
9 'x, -y, -z'
10 'z, x, y'
11 'y, z, x'
12 'x, y, z'
loop_
_atom_type_symbol
_atom_type_oxidation_number
Ir0+ 0
Al0+ 0
loop_
_atom_site_label
_atom_site_type_symbol
_atom_site_symmetry_multiplicity
_atom_site_Wyckoff_symbol
_atom_site_fract_x
_atom_site_fract_y
_atom_site_fract_z
_atom_site_B_iso_or_equiv
_atom_site_occupancy
_atom_site_attached_hydrogens
Ir1 Ir0+ 1 b 0.5 0.5 0.5 0.40(2) 1. 0
Ir2 Ir0+ 1 a 0 0 0 0.49(2) 1. 0
Ir3 Ir0+ 12 j 0.5198(7) -.006(2) 0.2862(2) 0.56(9) 0.5 0
Al1 Al0+ 12 j 0.2028(9) 0.492(2) 0.6760(8) 1.01(10) 1. 0
Al2 Al0+ 4 e 0.815(3) 0.815(3) 0.815(3) 2.0(5) 0.52(6) 0
Al3 Al0+ 6 f 0 0 0.354(6) 3.2(7) 0.36(4) 0
Al4 Al0+ 12 j 0.116(4) -.010(10) 0.310(4) 2.2(6) 0.26(3) 0
Al5 Al0+ 12 j 0.195(7) 0.139(6) 0.236(6) 1.9(7) 0.21(3) 0
loop_
_atom_site_aniso_label
_atom_site_aniso_type_symbol
_atom_site_aniso_B_11
_atom_site_aniso_B_22
_atom_site_aniso_B_33
_atom_site_aniso_B_12
_atom_site_aniso_B_13
_atom_site_aniso_B_23
Ir1 Ir0+ 0.40(3) 0.40(3) 0.40(3) 0 0 0
Ir2 Ir0+ 0.49(3) 0.49(3) 0.49(3) 0 0 0
Ir3 Ir0+ 0.7(2) 0.39(13) 0.59(4) -.5(2) 0.06(4) 0.35(14)
#End of TTdata_406526-ICSD