
#(C) 2017 by FIZ Karlsruhe - Leibniz Institute for Information Infrastructure.  All rights reserved.
data_104303-ICSD
_database_code_ICSD 104303
_audit_creation_date 2004-10-01
_audit_update_record 2010-02-01
_chemical_name_systematic 'Mercury potassium (2/1)'
_chemical_formula_structural 'Hg2 K'
_chemical_formula_sum 'Hg2 K1'
_chemical_name_structure_type CeCu2
_exptl_crystal_density_diffrn 7.98
_publ_section_title 'The crystal structures of K Hg and K Hg2'
loop_
_citation_id
_citation_journal_full
_citation_year
_citation_journal_volume
_citation_page_first
_citation_page_last
_citation_journal_id_ASTM
primary 'Acta Crystallographica (1,1948-23,1967)' 1955 8 705 710 ACCRA9
loop_
_publ_author_name
'Duwell, E.J.'
'Baenziger, N.C.'
_cell_length_a 8.1
_cell_length_b 5.16
_cell_length_c 8.77
_cell_angle_alpha 90.
_cell_angle_beta 90.
_cell_angle_gamma 90.
_cell_volume 366.55
_cell_formula_units_Z 4
_symmetry_space_group_name_H-M 'I m m a'
_symmetry_Int_Tables_number 74
loop_
_symmetry_equiv_pos_site_id
_symmetry_equiv_pos_as_xyz
1 '-x, y+1/2, -z'
2 '-x, -y+1/2, z'
3 '-x, y, z'
4 '-x, -y, -z'
5 'x, -y+1/2, z'
6 'x, y+1/2, -z'
7 'x, -y, -z'
8 'x, y, z'
9 '-x+1/2, y, -z+1/2'
10 '-x+1/2, -y, z+1/2'
11 '-x+1/2, y+1/2, z+1/2'
12 '-x+1/2, -y+1/2, -z+1/2'
13 'x+1/2, -y, z+1/2'
14 'x+1/2, y, -z+1/2'
15 'x+1/2, -y+1/2, -z+1/2'
16 'x+1/2, y+1/2, z+1/2'
loop_
_atom_type_symbol
_atom_type_oxidation_number
Hg0+ 0
K0+ 0
loop_
_atom_site_label
_atom_site_type_symbol
_atom_site_symmetry_multiplicity
_atom_site_Wyckoff_symbol
_atom_site_fract_x
_atom_site_fract_y
_atom_site_fract_z
_atom_site_B_iso_or_equiv
_atom_site_occupancy
_atom_site_attached_hydrogens
Hg1 Hg0+ 8 i 0.19 0.25 0.087 1.35 1. 0
K1 K0+ 4 e 0 0.25 0.703 1.35 1. 0
#End of TTdata_104303-ICSD