
#(C) 2017 by FIZ Karlsruhe - Leibniz Institute for Information Infrastructure.  All rights reserved.
data_412242-ICSD
_database_code_ICSD 412242
_audit_creation_date 2005-04-01
_chemical_name_systematic 'Carbon (70)'
_chemical_formula_structural C70
_chemical_formula_sum C70
_exptl_crystal_density_diffrn 1.8
_publ_section_title
'Topochemical polymerization of C70 controlled by monomer crystal packing'
loop_
_citation_id
_citation_journal_full
_citation_year
_citation_journal_volume
_citation_page_first
_citation_page_last
_citation_journal_id_ASTM
primary Science 2001 293 680 683 SCIEAS
loop_
_publ_author_name
'Soldatov, A.V.'
'Roth, G.'
'Dzyabchenko, A.'
'Johnels, D.'
'Lebedkin, S.'
'Meingast, C.'
'Sundqvist, B.'
'Haluska, M.'
'Kuzmany, H.'
_cell_length_a 17.303(2)
_cell_length_b 9.9900(14)
_cell_length_c 17.924(4)
_cell_angle_alpha 90.
_cell_angle_beta 90.
_cell_angle_gamma 90.
_cell_volume 3098.29
_cell_formula_units_Z 4
_symmetry_space_group_name_H-M 'C c m m'
_symmetry_Int_Tables_number 63
_refine_ls_R_factor_all 0.0911
loop_
_symmetry_equiv_pos_site_id
_symmetry_equiv_pos_as_xyz
1 'x, -y, -z+1/2'
2 '-x, -y, z+1/2'
3 'x, -y, z'
4 '-x, -y, -z'
5 '-x, y, z+1/2'
6 'x, y, -z+1/2'
7 '-x, y, -z'
8 'x, y, z'
9 'x+1/2, -y+1/2, -z+1/2'
10 '-x+1/2, -y+1/2, z+1/2'
11 'x+1/2, -y+1/2, z'
12 '-x+1/2, -y+1/2, -z'
13 '-x+1/2, y+1/2, z+1/2'
14 'x+1/2, y+1/2, -z+1/2'
15 '-x+1/2, y+1/2, -z'
16 'x+1/2, y+1/2, z'
loop_
_atom_type_symbol
_atom_type_oxidation_number
C0+ 0
loop_
_atom_site_label
_atom_site_type_symbol
_atom_site_symmetry_multiplicity
_atom_site_Wyckoff_symbol
_atom_site_fract_x
_atom_site_fract_y
_atom_site_fract_z
_atom_site_B_iso_or_equiv
_atom_site_occupancy
_atom_site_attached_hydrogens
C1 C0+ 8 f 0.5649(3) 0. 0.9851(3) 0.038(2) 1 0
C2 C0+ 16 h 0.6180(3) 0.1200(4) 0.9723(2) 0.0475(12) 1 0
C3 C0+ 16 h 0.6959(2) 0.0725(4) 0.9708(2) 0.0412(12) 1 0
C4 C0+ 8 f 0.4849(3) 0. 0.9381(3) 0.047(2) 1 0
C5 C0+ 16 h 0.5954(2) 0.2264(4) 0.9291(2) 0.0313(10) 1 0
C6 C0+ 16 h 0.7517(2) 0.1420(4) 0.9290(2) 0.0424(11) 1 0
C7 C0+ 16 h 0.4775(2) 0.1167(4) 0.8860(2) 0.0256(10) 1 0
C8 C0+ 16 h 0.5255(3) 0.2242(4) 0.8864(2) 0.0398(11) 1 0
C9 C0+ 16 h 0.6513(2) 0.2985(4) 0.8853(2) 0.0355(10) 1 0
C10 C0+ 16 h 0.7281(3) 0.2521(4) 0.8870(2) 0.0407(11) 1 0
C11 C0+ 16 h 0.8100(2) 0.0698(3) 0.8872(2) 0.0447(14) 1 0
C12 C0+ 16 h 0.4431(3) 0.0735(3) 0.8168(2) 0.0461(12) 1 0
C13 C0+ 16 h 0.5401(2) 0.2931(4) 0.8178(2) 0.0328(11) 1 0
C14 C0+ 16 h 0.6187(3) 0.3385(4) 0.8170(2) 0.0349(11) 1 0
C15 C0+ 16 h 0.7736(3) 0.2514(5) 0.8162(2) 0.0542(13) 1 0
C16 C0+ 16 h 0.8228(3) 0.1397(6) 0.8177(2) 0.0570(13) 1 0
C17 C0+ 8 g 0.4536(3) 0.1418(6) 0.75 0.037(2) 1 0
C18 C0+ 8 g 0.5026(3) 0.2599(6) 0.75 0.046(2) 1 0
C19 C0+ 8 g 0.6592(3) 0.3471(6) 0.75 0.0342(15) 1 0
C20 C0+ 8 g 0.7398(4) 0.3032(5) 0.75 0.045(2) 1 0
C21 C0+ 8 g 0.8430(4) 0.0755(5) 0.75 0.051(2) 1 0
#End of TTdata_412242-ICSD