
#(C) 2018 by FIZ Karlsruhe - Leibniz Institute for Information Infrastructure.  All rights reserved.
data_839-ICSD
_database_code_ICSD 839
_audit_creation_date 1980-01-01
_audit_update_record 1985-06-24
_chemical_name_systematic 'Cyclo-tetraimidotetraphosphoric acid dihydrate'
_chemical_formula_structural '(N H P O2 H)4 (H2 O)2'
_chemical_formula_sum 'H12 N4 O10 P4'
_exptl_crystal_density_diffrn 1.98
_publ_section_title 'Tetrametaphosphimic acid dihydrate, a redetermination'
loop_
_citation_id
_citation_journal_full
_citation_year
_citation_journal_volume
_citation_page_first
_citation_page_last
_citation_journal_id_ASTM
primary

;
Acta Crystallographica, Section B: Structural Crystallography and Crystal
Chemistry
; 1977 33 605 607 ACBCAR
loop_
_publ_author_name
'Attig, R.'
'Mootz, D.'
_cell_length_a 13.995(8)
_cell_length_b 8.334(4)
_cell_length_c 5.064(3)
_cell_angle_alpha 90.
_cell_angle_beta 90.
_cell_angle_gamma 90.
_cell_volume 590.64
_cell_formula_units_Z 2
_symmetry_space_group_name_H-M 'P 21 21 2'
_symmetry_Int_Tables_number 18
_refine_ls_R_factor_all 0.057
loop_
_symmetry_equiv_pos_site_id
_symmetry_equiv_pos_as_xyz
1 '-x+1/2, y+1/2, -z'
2 'x+1/2, -y+1/2, -z'
3 '-x, -y, z'
4 'x, y, z'
loop_
_atom_type_symbol
_atom_type_oxidation_number
P5+ 5
N3- -3
O2- -2
H1+ 1
loop_
_atom_site_label
_atom_site_type_symbol
_atom_site_symmetry_multiplicity
_atom_site_Wyckoff_symbol
_atom_site_fract_x
_atom_site_fract_y
_atom_site_fract_z
_atom_site_B_iso_or_equiv
_atom_site_occupancy
_atom_site_attached_hydrogens
P1 P5+ 4 c 0.1251(1) 0.1165(1) 0.1035(1) . 1. 0
P2 P5+ 4 c 0.0690(1) -.2107(1) -.0623(1) . 1. 0
N1 N3- 4 c 0.0165(2) 0.1910(3) 0.1601(5) . 1. 0
N2 N3- 4 c 0.1137(2) -.0285(4) -.1188(4) . 1. 0
O1 O2- 4 c 0.1841(1) 0.2469(2) -.0299(5) . 1. 0
O2 O2- 4 c 0.1623(2) 0.0546(3) 0.3587(4) . 1. 0
O3 O2- 4 c 0.1444(1) -.3140(3) 0.0757(5) . 1. 0
O4 O2- 4 c 0.0318(2) -.2761(3) -.3165(4) . 1. 0
O5 O2- 4 c 0.3483(3) -.0389(3) 0.4801(6) . 1. 0
H1 H1+ 4 c 0.007(3) 0.206(5) 0.283(8) 0.02 1. 0
H2 H1+ 4 c 0.117(2) 0.001(4) -.318(7) 0.007 1. 0
H3 H1+ 4 c 0.23 -.284 0.053 0.054 1. 0
H4 H1+ 4 c 0.360(6) -.123(10) 0.25(2) 0.126 1. 0
H5 H1+ 4 c 0.280(3) -.010(4) 0.426(8) 0.019 1. 0
H6 H1+ 4 c 0.418(4) 0.015(7) 0.467(11) 0.048 1. 0
loop_
_atom_site_aniso_label
_atom_site_aniso_type_symbol
_atom_site_aniso_U_11
_atom_site_aniso_U_22
_atom_site_aniso_U_33
_atom_site_aniso_U_12
_atom_site_aniso_U_13
_atom_site_aniso_U_23
P1 P5+ 0.0077(3) 0.0156(3) 0.0108(3) -.0004(2) -.0004(2) 0.0002(3)
P2 P5+ 0.0094(3) 0.0136(3) 0.0119(3) 0.0008(2) 0.0014(3) 0.0016(3)
N1 N3- 0.0086(9) 0.0211(11) 0.0112(10) 0.0007(9) -.0001(8) -.0042(10)
N2 N3- 0.0141(10) 0.0154(10) 0.0122(9) -.0012(8) 0.0022(9) -.0009(9)
O1 O2- 0.0119(8) 0.0187(8) 0.0251(11) -.0040(7) 0.0016(8) 0.0030(9)
O2 O2- 0.0167(9) 0.0347(12) 0.0103(9) 0.0028(8) -.0022(8) 0.0021(9)
O3 O2- 0.0108(8) 0.0210(9) 0.0308(12) 0.0028(7) 0.0013(9) 0.0106(10)
O4 O2- 0.0242(10) 0.0203(9) 0.0152(9) -.0021(8) -.0005(8) -.0025(9)
O5 O2- 0.0376(14) 0.0280(13) 0.0364(15) 0.0020(11) -.0017(12) -.0016(12)
#End of TTdata_839-ICSD