
#(C) 2018 by FIZ Karlsruhe - Leibniz Institute for Information Infrastructure.  All rights reserved.
data_1287-ICSD
_database_code_ICSD 1287
_audit_creation_date 1980-01-01
_audit_update_record 2006-04-01
_chemical_name_systematic 'Nickel yttrium (2/3)'
_chemical_formula_structural 'Ni2 Y3'
_chemical_formula_sum 'Ni2 Y3'
_exptl_crystal_density_diffrn 5.53
_publ_section_title
'Y3 Ni2: A new tetragonal phase with Ni-centred trigonal prism'
loop_
_citation_id
_citation_journal_full
_citation_year
_citation_journal_volume
_citation_page_first
_citation_page_last
_citation_journal_id_ASTM
primary

;
Acta Crystallographica, Section B: Structural Crystallography and Crystal
Chemistry
; 1977 33 3406 3409 ACBCAR
loop_
_publ_author_name
'le Roy, J.'
'Moreau, J.M.'
'Paccard, D.'
'Parthe, E.'
_cell_length_a 7.104(1)
_cell_length_b 7.104(1)
_cell_length_c 36.597(5)
_cell_angle_alpha 90.
_cell_angle_beta 90.
_cell_angle_gamma 90.
_cell_volume 1846.93
_cell_formula_units_Z 16
_symmetry_space_group_name_H-M 'P 41 21 2'
_symmetry_Int_Tables_number 92
_refine_ls_R_factor_all 0.11
loop_
_symmetry_equiv_pos_site_id
_symmetry_equiv_pos_as_xyz
1 'x+1/2, -y+1/2, -z+3/4'
2 '-x+1/2, y+1/2, -z+1/4'
3 '-y, -x, -z+1/2'
4 'y, x, -z'
5 'y+1/2, -x+1/2, z+3/4'
6 '-y+1/2, x+1/2, z+1/4'
7 '-x, -y, z+1/2'
8 'x, y, z'
loop_
_atom_type_symbol
_atom_type_oxidation_number
Y0+ 0
Ni0+ 0
loop_
_atom_site_label
_atom_site_type_symbol
_atom_site_symmetry_multiplicity
_atom_site_Wyckoff_symbol
_atom_site_fract_x
_atom_site_fract_y
_atom_site_fract_z
_atom_site_B_iso_or_equiv
_atom_site_occupancy
_atom_site_attached_hydrogens
Y1 Y0+ 4 a 0.966(2) 0.966(2) 0 2.1(3) 1. 0
Y2 Y0+ 4 a 0.317(2) 0.317(2) 0 1.6(6) 1. 0
Y3 Y0+ 8 b 0.808(2) 0.443(2) 0.0156(4) 1.3(5) 1. 0
Y4 Y0+ 8 b 0.163(2) 0.659(2) 0.0680(4) 1.1(4) 1. 0
Y5 Y0+ 8 b 0.645(2) 0.809(2) 0.0747(4) 1.2(4) 1. 0
Y6 Y0+ 8 b 0.012(2) 0.163(2) 0.0891(4) 1.2(4) 1. 0
Y7 Y0+ 8 b 0.514(2) 0.293(2) 0.0933(4) 1.4(4) 1. 0
Ni1 Ni0+ 8 b 0.310(3) 0.008(3) 0.0484(4) 1.0(5) 1. 0
Ni2 Ni0+ 8 b 0.630(3) 0.101(3) 0.0257(5) 1.6(6) 1. 0
Ni3 Ni0+ 8 b 0.840(3) 0.510(3) 0.1063(5) 1.2(5) 1. 0
Ni4 Ni0+ 8 b 0.322(3) 0.943(3) 0.1167(5) 1.0(5) 1. 0
#End of TTdata_1287-ICSD