
#(C) 2017 by FIZ Karlsruhe - Leibniz Institute for Information Infrastructure.  All rights reserved.
data_33693-ICSD
_database_code_ICSD 33693
_audit_creation_date 1984-11-12
_audit_update_record 2012-08-01
_chemical_name_systematic Sulfur
_chemical_formula_structural S
_chemical_formula_sum S1
_exptl_crystal_density_diffrn 2.06
_publ_section_title 'Structure of Pressure-Induced Fibrous Sulfur'
loop_
_citation_id
_citation_journal_full
_citation_year
_citation_journal_volume
_citation_page_first
_citation_page_last
_citation_journal_id_ASTM
primary 'Journal of Chemical Physics' 1969 51 348 353 JCPSA6
loop_
_publ_author_name
'Lind, M.D.'
'Geller, S.'
_cell_length_a 17.608
_cell_length_b 9.25
_cell_length_c 13.8
_cell_angle_alpha 90.
_cell_angle_beta 113.07
_cell_angle_gamma 90.
_cell_volume 2067.91
_cell_formula_units_Z 80
_symmetry_space_group_name_H-M 'P 1 2 1'
_symmetry_Int_Tables_number 3
_refine_ls_R_factor_all 0.167
loop_
_symmetry_equiv_pos_site_id
_symmetry_equiv_pos_as_xyz
1 '-x, y, -z'
2 'x, y, z'
loop_
_atom_type_symbol
_atom_type_oxidation_number
S0+ 0
loop_
_atom_site_label
_atom_site_type_symbol
_atom_site_symmetry_multiplicity
_atom_site_Wyckoff_symbol
_atom_site_fract_x
_atom_site_fract_y
_atom_site_fract_z
_atom_site_B_iso_or_equiv
_atom_site_occupancy
_atom_site_attached_hydrogens
S1 S0+ 1 a 0 0 0 3. 1. 0
S2 S0+ 1 c 0.5 0.5 0 3. 1. 0
S3 S0+ 1 b 0 0.2054 0.5 3. 1. 0
S4 S0+ 1 d 0.5 0.7054 0.5 3. 1. 0
S5 S0+ 2 e 0.5558 0.6344 0.1279 3. 1. 0
S6 S0+ 2 e 0.4656 0.6858 0.1828 3. 1. 0
S7 S0+ 2 e 0.4656 0.5196 0.2828 3. 1. 0
S8 S0+ 2 e 0.5558 0.571 0.4279 3. 1. 0
S9 S0+ 2 e 0.5474 0.0423 0.0737 3. 1. 0
S10 S0+ 2 e 0.5182 0.2004 0.1591 3. 1. 0
S11 S0+ 2 e 0.4414 0.1027 0.2207 3. 1. 0
S12 S0+ 2 e 0.5182 0.005 0.3591 3. 1. 0
S13 S0+ 2 e 0.4526 0.1631 0.5263 3. 1. 0
S14 S0+ 2 e 0.6908 0.8083 0.0472 3. 1. 0
S15 S0+ 2 e 0.2318 0.7121 0.0141 3. 1. 0
S16 S0+ 2 e 0.2036 0.8706 0.1 3. 1. 0
S17 S0+ 2 e 0.2984 0.8689 0.2474 3. 1. 0
S18 S0+ 2 e 0.2682 0.7114 0.3323 3. 1. 0
S19 S0+ 2 e 0.192 0.8105 0.3942 3. 1. 0
S20 S0+ 2 e 0.2694 0.9067 0.5329 3. 1. 0
S21 S0+ 2 e 0.2976 0.7482 0.647 3. 1. 0
S22 S0+ 2 e 0.2082 0.7499 0.6996 3. 1. 0
S23 S0+ 2 e 0.767 0.9074 0.1853 3. 1. 0
S24 S0+ 2 e 0.7144 0.3919 0.109 3. 1. 0
S25 S0+ 2 e 0.7154 0.2257 0.0095 3. 1. 0
S26 S0+ 2 e 0.1946 0.2787 0.0455 3. 1. 0
S27 S0+ 2 e 0.2512 0.4121 0.1738 3. 1. 0
S28 S0+ 2 e 0.3062 0.2766 0.3013 3. 1. 0
S29 S0+ 2 e 0.2156 0.2269 0.356 3. 1. 0
S30 S0+ 2 e 0.2166 0.3931 0.4565 3. 1. 0
S31 S0+ 2 e 0.3066 0.341 0.6015 3. 1. 0
S32 S0+ 2 e 0.25 0.2067 0.6732 3. 1. 0
S33 S0+ 2 e 0.195 0.3422 0.7457 3. 1. 0
S34 S0+ 2 e 0.0586 0.6027 0.7793 3. 1. 0
S35 S0+ 2 e 0.0182 0.7004 0.1591 3. 1. 0
S36 S0+ 2 e 0.0474 0.5423 0.0737 3. 1. 0
S37 S0+ 2 e 0.0182 0.505 0.3591 3. 1. 0
S38 S0+ 2 e 0.0474 0.6631 0.4737 3. 1. 0
S39 S0+ 2 e 0.0344 0.1858 0.8172 3. 1. 0
S40 S0+ 2 e 0.0558 0.1344 0.1279 3. 1. 0
S41 S0+ 2 e 0.0344 0.0196 0.7172 3. 1. 0
S42 S0+ 2 e 0.0588 0.071 0.4279 3. 1. 0
#End of TTdata_33693-ICSD