
#(C) 2017 by FIZ Karlsruhe - Leibniz Institute for Information Infrastructure.  All rights reserved.
data_26430-ICSD
_database_code_ICSD 26430
_audit_creation_date 1981-12-31
_audit_update_record 2006-04-01
_chemical_name_systematic 'Silicon oxide - HT'
_chemical_formula_structural 'Si O2'
_chemical_formula_sum 'O2 Si1'
_chemical_name_structure_type Quartz,high
_chemical_name_mineral 'Quartz high'
_exptl_crystal_density_diffrn 2.53
_cell_measurement_temperature 863.
_publ_section_title
'The structure of quartz at 25 and 590 C determined by neutron diffraction'
loop_
_citation_id
_citation_journal_full
_citation_year
_citation_journal_volume
_citation_page_first
_citation_page_last
_citation_journal_id_ASTM
primary 'Journal of Solid State Chemistry' 1981 36 371 380 JSSCBI
loop_
_publ_author_name
'Wright, A.F.'
'Lehmann, M.S.'
_cell_length_a 4.9977
_cell_length_b 4.9977
_cell_length_c 5.4601
_cell_angle_alpha 90.
_cell_angle_beta 90.
_cell_angle_gamma 120.
_cell_volume 118.11
_cell_formula_units_Z 3
_symmetry_space_group_name_H-M 'P 62 2 2'
_symmetry_Int_Tables_number 180
_refine_ls_R_factor_all 0.038
loop_
_symmetry_equiv_pos_site_id
_symmetry_equiv_pos_as_xyz
1 'x, x-y, -z+1/3'
2 '-x+y, y, -z'
3 '-y, -x, -z+2/3'
4 '-x, -x+y, -z+1/3'
5 'x-y, -y, -z'
6 'y, x, -z+2/3'
7 'x-y, x, z+1/3'
8 'y, -x+y, z+2/3'
9 '-x, -y, z'
10 '-x+y, -x, z+1/3'
11 '-y, x-y, z+2/3'
12 'x, y, z'
loop_
_atom_type_symbol
_atom_type_oxidation_number
Si4+ 4
O2- -2
loop_
_atom_site_label
_atom_site_type_symbol
_atom_site_symmetry_multiplicity
_atom_site_Wyckoff_symbol
_atom_site_fract_x
_atom_site_fract_y
_atom_site_fract_z
_atom_site_B_iso_or_equiv
_atom_site_occupancy
_atom_site_attached_hydrogens
Si1 Si4+ 3 c 0.5 0 0 . 1. 0
O1 O2- 12 k 0.4164(3) 0.2381(11) 0.1419(10) . 0.5 0
loop_
_atom_site_aniso_label
_atom_site_aniso_type_symbol
_atom_site_aniso_U_11
_atom_site_aniso_U_22
_atom_site_aniso_U_33
_atom_site_aniso_U_12
_atom_site_aniso_U_13
_atom_site_aniso_U_23
Si1 Si4+ 0.0227(7) 0.0184(6) 0.0167(4) 0.0092(6) 0 0
O1 O2- 0.0529(8) 0.0374(11) 0.0381(23) 0.0298(4) -0.0064(8) -0.0174(6)
#End of TTdata_26430-ICSD