
#(C) 2017 by FIZ Karlsruhe - Leibniz Institute for Information Infrastructure.  All rights reserved.
data_2431-ICSD
_database_code_ICSD 2431
_audit_creation_date 1980-01-01
_audit_update_record 2012-08-01
_chemical_name_systematic 'Indium(I) chloride - HT'
_chemical_formula_structural 'In Cl'
_chemical_formula_sum 'Cl1 In1'
_exptl_crystal_density_diffrn 4.07
_cell_measurement_temperature 430.
_publ_section_title 'The structures of yellow and red indium monochloride'
loop_
_citation_id
_citation_journal_full
_citation_year
_citation_journal_volume
_citation_page_first
_citation_page_last
_citation_journal_id_ASTM
primary 'Acta Crystallographica B (24,1968-38,1982)' 1978 34 3333 3335 ACBCAR
loop_
_publ_author_name
'van der Vorst, C.P.J.M.'
'Verschoor, G.C.'
'Maaskant, W.J.A.'
_cell_length_a 4.242(2)
_cell_length_b 12.32(1)
_cell_length_c 4.689(4)
_cell_angle_alpha 90.
_cell_angle_beta 90.
_cell_angle_gamma 90.
_cell_volume 245.05
_cell_formula_units_Z 4
_symmetry_space_group_name_H-M 'C 2 c m'
_symmetry_Int_Tables_number 40
_refine_ls_R_factor_all 0.0425
loop_
_symmetry_equiv_pos_site_id
_symmetry_equiv_pos_as_xyz
1 'x, -y, z+1/2'
2 'x, y, -z+1/2'
3 'x, -y, -z'
4 'x, y, z'
5 'x+1/2, -y+1/2, z+1/2'
6 'x+1/2, y+1/2, -z+1/2'
7 'x+1/2, -y+1/2, -z'
8 'x+1/2, y+1/2, z'
loop_
_atom_type_symbol
_atom_type_oxidation_number
In1+ 1
Cl1- -1
loop_
_atom_site_label
_atom_site_type_symbol
_atom_site_symmetry_multiplicity
_atom_site_Wyckoff_symbol
_atom_site_fract_x
_atom_site_fract_y
_atom_site_fract_z
_atom_site_B_iso_or_equiv
_atom_site_occupancy
_atom_site_attached_hydrogens
In1 In1+ 4 b 0 0.38815(8) 0.25 . 1. 0
Cl1 Cl1- 4 b 0.001 0.1549(4) 0.25 . 1. 0
loop_
_atom_site_aniso_label
_atom_site_aniso_type_symbol
_atom_site_aniso_U_11
_atom_site_aniso_U_22
_atom_site_aniso_U_33
_atom_site_aniso_U_12
_atom_site_aniso_U_13
_atom_site_aniso_U_23
In1 In1+ 0.0820(9) 0.0630(7) 0.0707(7) -.0154(45) 0 0
Cl1 Cl1- 0.068(2) 0.065(2) 0.093(2) -.045(13) 0 0
#End of TTdata_2431-ICSD