
#(C) 2017 by FIZ Karlsruhe - Leibniz Institute for Information Infrastructure.  All rights reserved.
data_27840-ICSD
_database_code_ICSD 27840
_audit_creation_date 1980-01-01
_audit_update_record 2006-04-01
_chemical_name_systematic 'Sulfur - alpha'
_chemical_formula_structural S8
_chemical_formula_sum S8
_chemical_name_structure_type S8(Fddd)
_chemical_name_mineral Sulphur
_exptl_crystal_density_diffrn 2.05
_publ_section_title 'The structure of rhombic sulphur'
loop_
_citation_id
_citation_journal_full
_citation_year
_citation_journal_volume
_citation_page_first
_citation_page_last
_citation_journal_id_ASTM
primary 'Journal of Chemical Physics' 1935 3 6 8 JCPSA6
loop_
_publ_author_name
'Warren, B.E.'
'Burwell, J.T.'
_cell_length_a 10.48
_cell_length_b 12.92
_cell_length_c 24.54999
_cell_angle_alpha 90.
_cell_angle_beta 90.
_cell_angle_gamma 90.
_cell_volume 3324.11
_cell_formula_units_Z 16
_symmetry_space_group_name_H-M 'F d d d S'
_symmetry_Int_Tables_number 70
loop_
_symmetry_equiv_pos_site_id
_symmetry_equiv_pos_as_xyz
1 'x+1/4, y+1/4, -z+1/4'
2 '-x+1/4, y+1/4, z+1/4'
3 '-x, -y, z'
4 'x, -y, -z'
5 'x+1/4, -y+1/4, z+1/4'
6 '-x+1/4, -y+1/4, -z+1/4'
7 '-x, y, -z'
8 'x, y, z'
9 'x+1/4, y+3/4, -z+3/4'
10 '-x+1/4, y+3/4, z+3/4'
11 '-x, -y+1/2, z+1/2'
12 'x, -y+1/2, -z+1/2'
13 'x+1/4, -y+3/4, z+3/4'
14 '-x+1/4, -y+3/4, -z+3/4'
15 '-x, y+1/2, -z+1/2'
16 'x, y+1/2, z+1/2'
17 'x+3/4, y+1/4, -z+3/4'
18 '-x+3/4, y+1/4, z+3/4'
19 '-x+1/2, -y, z+1/2'
20 'x+1/2, -y, -z+1/2'
21 'x+3/4, -y+1/4, z+3/4'
22 '-x+3/4, -y+1/4, -z+3/4'
23 '-x+1/2, y, -z+1/2'
24 'x+1/2, y, z+1/2'
25 'x+3/4, y+3/4, -z+1/4'
26 '-x+3/4, y+3/4, z+1/4'
27 '-x+1/2, -y+1/2, z'
28 'x+1/2, -y+1/2, -z'
29 'x+3/4, -y+3/4, z+1/4'
30 '-x+3/4, -y+3/4, -z+1/4'
31 '-x+1/2, y+1/2, -z'
32 'x+1/2, y+1/2, z'
loop_
_atom_type_symbol
_atom_type_oxidation_number
S0+ 0
loop_
_atom_site_label
_atom_site_type_symbol
_atom_site_symmetry_multiplicity
_atom_site_Wyckoff_symbol
_atom_site_fract_x
_atom_site_fract_y
_atom_site_fract_z
_atom_site_B_iso_or_equiv
_atom_site_occupancy
_atom_site_attached_hydrogens
S1 S0+ 32 h -.017 0.083 0.072 . 1. 0
S2 S0+ 32 h -.094 0.161 0.2 . 1. 0
S3 S0+ 32 h -.167 0.105 0.125 . 1. 0
S4 S0+ 32 h -.094 0.028 0.25 . 1. 0
#End of TTdata_27840-ICSD