
#(C) 2017 by FIZ Karlsruhe - Leibniz Institute for Information Infrastructure.  All rights reserved.
data_61009-ICSD
_database_code_ICSD 61009
_audit_creation_date 1986-04-14
_audit_update_record 2003-04-01
_chemical_name_systematic 'Cesium iodate(V)'
_chemical_formula_structural 'Cs (I O3)'
_chemical_formula_sum 'Cs1 I1 O3'
_exptl_crystal_density_diffrn 5.
_publ_section_title 'The crystal structure of cesium iodate'
loop_
_citation_id
_citation_journal_full
_citation_year
_citation_journal_volume
_citation_page_first
_citation_page_last
_citation_journal_id_ASTM
primary 'Hua Hsueh Hsueh Pao' 1985 43 271 274 HHHPA4
loop_
_publ_author_name
'Wang, C.-G.'
_cell_length_a 6.613
_cell_length_b 6.613
_cell_length_c 4.676
_cell_angle_alpha 90.
_cell_angle_beta 90.8(8)
_cell_angle_gamma 90.
_cell_volume 204.47
_cell_formula_units_Z 2
_symmetry_space_group_name_H-M 'P 1 m 1'
_symmetry_Int_Tables_number 6
_refine_ls_R_factor_all 0.042
loop_
_symmetry_equiv_pos_site_id
_symmetry_equiv_pos_as_xyz
1 'x, -y, z'
2 'x, y, z'
loop_
_atom_type_symbol
_atom_type_oxidation_number
I5+ 5
Cs1+ 1
O2- -2
loop_
_atom_site_label
_atom_site_type_symbol
_atom_site_symmetry_multiplicity
_atom_site_Wyckoff_symbol
_atom_site_fract_x
_atom_site_fract_y
_atom_site_fract_z
_atom_site_B_iso_or_equiv
_atom_site_occupancy
_atom_site_attached_hydrogens
I1 I5+ 1 a 0 0 0 . 1. 0
I2 I5+ 1 b 0.5 0.5 0 . 1. 0
Cs1 Cs1+ 1 a 0.485 0 0.485 . 1. 0
Cs2 Cs1+ 1 b -.015 0.5 0.515 . 1. 0
O1 O2- 1 a -.024 0 0.386 . 1. 0
O2 O2- 2 c 0.176 0.209 -.034 . 1. 0
O3 O2- 2 c 0.676 0.709 0.034 . 1. 0
O4 O2- 1 b 0.476 0.5 0.614 . 1. 0
#End of TTdata_61009-ICSD