
#(C) 2018 by FIZ Karlsruhe - Leibniz Institute for Information Infrastructure.  All rights reserved.
data_104912-ICSD
_database_code_ICSD 104912
_audit_creation_date 2004-10-01
_chemical_name_systematic 'Magnesium nickel (2/1)'
_chemical_formula_structural 'Mg2 Ni'
_chemical_formula_sum 'Mg2 Ni1'
_chemical_name_structure_type Mg2Ni
_exptl_crystal_density_diffrn 3.46
_publ_section_title

;
New structure results for hydrides and deuterides of the hydrogen storage
material Mg2 Ni
;
loop_
_citation_id
_citation_journal_full
_citation_year
_citation_journal_volume
_citation_page_first
_citation_page_last
_citation_journal_id_ASTM
primary 'Journal of the Less-Common Metals' 1980 74 65 73 JCOMAH
loop_
_publ_author_name
'Schefer, J.'
'Fischer, P.'
'Haelg, W.'
'Stucki, F.'
'Schlapbach, L.'
'Didisheim, J.J.'
'Yvon, K.'
'Andersen, A.F.'
_cell_length_a 5.198(7)
_cell_length_b 5.198
_cell_length_c 13.21(2)
_cell_angle_alpha 90.
_cell_angle_beta 90.
_cell_angle_gamma 120.
_cell_volume 309.1
_cell_formula_units_Z 6
_symmetry_space_group_name_H-M 'P 62 2 2'
_symmetry_Int_Tables_number 180
_refine_ls_R_factor_all 0.09
loop_
_symmetry_equiv_pos_site_id
_symmetry_equiv_pos_as_xyz
1 'x, x-y, -z+1/3'
2 '-x+y, y, -z'
3 '-y, -x, -z+2/3'
4 '-x, -x+y, -z+1/3'
5 'x-y, -y, -z'
6 'y, x, -z+2/3'
7 'x-y, x, z+1/3'
8 'y, -x+y, z+2/3'
9 '-x, -y, z'
10 '-x+y, -x, z+1/3'
11 '-y, x-y, z+2/3'
12 'x, y, z'
loop_
_atom_type_symbol
_atom_type_oxidation_number
Mg0+ 0
Ni0+ 0
loop_
_atom_site_label
_atom_site_type_symbol
_atom_site_symmetry_multiplicity
_atom_site_Wyckoff_symbol
_atom_site_fract_x
_atom_site_fract_y
_atom_site_fract_z
_atom_site_B_iso_or_equiv
_atom_site_occupancy
_atom_site_attached_hydrogens
Mg1 Mg0+ 6 f 0.5 0 0.1141(4) 0.71(1) 1. 0
Mg2 Mg0+ 6 i 0.163(1) 0.326 0 0.71(1) 1. 0
Ni1 Ni0+ 3 b 0 0 0.5 0.45(1) 1. 0
Ni2 Ni0+ 3 d 0.5 0 0.5 0.45(1) 1. 0
#End of TTdata_104912-ICSD