
#(C) 2017 by FIZ Karlsruhe - Leibniz Institute for Information Infrastructure.  All rights reserved.
data_164658-ICSD
_database_code_ICSD 164658
_audit_creation_date 2010-02-01
_audit_update_record 2013-08-01
_chemical_name_systematic 'Boron (28) - HP'
_chemical_formula_structural B28
_chemical_formula_sum B28
_chemical_name_structure_type B28
_exptl_crystal_density_diffrn 2.53
_cell_measurement_temperature 293.
_publ_section_title
'Superhard semiconducting optically transparent high pressure phase of boron'
loop_
_citation_id
_citation_journal_full
_citation_year
_citation_journal_volume
_citation_page_first
_citation_page_last
_citation_journal_id_ASTM
primary 'Physical Review Letters' 2009 102 185501-1 185501-3 PRLTAO
loop_
_publ_author_name
'Zarechnaya, E.Yu.'
'Dubrovinsky, L.'
'Dubrovinskaia, N.'
'Filinchuk, Y.'
'Chernyshov, D.'
'Dmitriev, V.'
'Miyajima, N.'
'El Goresy, A.'
'Braun, H.F.'
'van Smaalen, S.'
'Kantor, I.'
'Kantor, A.'
'Prakapenka, V.'
'Hanfland, M.'
'Mikhaylushkin, A.S.'
'Abrikosov, I.A.'
'Simak, S.I.'
_cell_length_a 5.0576(4)
_cell_length_b 5.6245(8)
_cell_length_c 6.9884(10)
_cell_angle_alpha 90.
_cell_angle_beta 90.
_cell_angle_gamma 90.
_cell_volume 198.8
_cell_formula_units_Z 1
_symmetry_space_group_name_H-M 'P n n m'
_symmetry_Int_Tables_number 58
_refine_ls_R_factor_all 0.0373
loop_
_symmetry_equiv_pos_site_id
_symmetry_equiv_pos_as_xyz
1 'x+1/2, -y+1/2, z+1/2'
2 '-x+1/2, y+1/2, z+1/2'
3 'x, y, -z'
4 '-x, -y, -z'
5 '-x+1/2, y+1/2, -z+1/2'
6 'x+1/2, -y+1/2, -z+1/2'
7 '-x, -y, z'
8 'x, y, z'
loop_
_atom_type_symbol
_atom_type_oxidation_number
B0+ 0
loop_
_atom_site_label
_atom_site_type_symbol
_atom_site_symmetry_multiplicity
_atom_site_Wyckoff_symbol
_atom_site_fract_x
_atom_site_fract_y
_atom_site_fract_z
_atom_site_B_iso_or_equiv
_atom_site_occupancy
_atom_site_attached_hydrogens
B1 B0+ 8 h 0.1539(3) 0.5938(2) 0.7924(2) 0.0054(5) 1 0
B2 B0+ 4 g 0.6469(4) 0.7284(4) 0.5 0.0054(6) 1 0
B3 B0+ 4 g 0.3362(4) 0.5076(4) 0. 0.0052(6) 1 0
B4 B0+ 8 h 0.8391(3) 0.7189(3) 0.8737(2) 0.0049(5) 1 0
B5 B0+ 4 g 0.6690(4) 0.9823(4) 0. 0.0080(6) 1 0
loop_
_atom_site_aniso_label
_atom_site_aniso_type_symbol
_atom_site_aniso_U_11
_atom_site_aniso_U_22
_atom_site_aniso_U_33
_atom_site_aniso_U_12
_atom_site_aniso_U_13
_atom_site_aniso_U_23
B1 B0+ 0.0049(9) 0.0058(8) 0.0054(8) 0.0003(4) 0.0006(5) 0.0004(5)
B2 B0+ 0.0044(10) 0.0064(11) 0.0053(11) -0.0008(6) 0. 0.
B3 B0+ 0.0049(10) 0.0052(10) 0.0054(10) -0.0002(6) 0. 0.
B4 B0+ 0.0042(9) 0.0050(8) 0.0054(8) -0.0002(4) -0.0003(4) -0.0006(5)
B5 B0+ 0.0073(10) 0.0073(10) 0.0093(11) 0.0006(7) 0. 0.
#End of TTdata_164658-ICSD