
#(C) 2018 by FIZ Karlsruhe - Leibniz Institute for Information Infrastructure.  All rights reserved.
data_75459-ICSD
_database_code_ICSD 75459
_audit_creation_date 1996-04-22
_chemical_name_systematic 'Rhenium(IV) sulfide'
_chemical_formula_structural 'Re S2'
_chemical_formula_sum 'Re1 S2'
_chemical_name_structure_type ReSe2
_exptl_crystal_density_diffrn 7.58
_publ_section_title 'Structure of rhenium disulfide'
loop_
_citation_id
_citation_journal_full
_citation_year
_citation_journal_volume
_citation_page_first
_citation_page_last
_citation_journal_id_ASTM
primary 'Inorganic Chemistry' 1994 33 4418 4420 INOCAJ
loop_
_publ_author_name
'Murray, H.H.'
'Kelty, S.P.'
'Chianelli, R.R.'
'Day, C.S.'
_cell_length_a 6.417(4)
_cell_length_b 6.510(4)
_cell_length_c 6.461(4)
_cell_angle_alpha 121.10(4)
_cell_angle_beta 88.38(5)
_cell_angle_gamma 106.47(5)
_cell_volume 219.32
_cell_formula_units_Z 4
_symmetry_space_group_name_H-M 'P -1'
_symmetry_Int_Tables_number 2
_refine_ls_R_factor_all 0.067
loop_
_symmetry_equiv_pos_site_id
_symmetry_equiv_pos_as_xyz
1 '-x, -y, -z'
2 'x, y, z'
loop_
_atom_type_symbol
_atom_type_oxidation_number
Re4+ 4
S2- -2
loop_
_atom_site_label
_atom_site_type_symbol
_atom_site_symmetry_multiplicity
_atom_site_Wyckoff_symbol
_atom_site_fract_x
_atom_site_fract_y
_atom_site_fract_z
_atom_site_B_iso_or_equiv
_atom_site_occupancy
_atom_site_attached_hydrogens
Re1 Re4+ 2 i 0.4925(1) 0.0564(1) 0.2477(1) 0.2(1) 1. 0
Re2 Re4+ 2 i 0.5026(1) 0.5112(1) 0.2974(1) 0.2(1) 1. 0
S1 S2- 2 i 0.2174(10) 0.2498(10) 0.3676(9) 0.6(1) 1. 0
S2 S2- 2 i 0.2769(9) 0.7705(9) 0.3819(8) 0.3(1) 1. 0
S3 S2- 2 i 0.7562(9) 0.2729(9) 0.1178(8) 0.3(1) 1. 0
S4 S2- 2 i 0.6975(9) 0.7526(9) 0.1169(9) 0.4(1) 1. 0
#End of TTdata_75459-ICSD