
#(C) 2018 by FIZ Karlsruhe - Leibniz Institute for Information Infrastructure.  All rights reserved.
data_27034-ICSD
_database_code_ICSD 27034
_audit_creation_date 1980-01-01
_audit_update_record 2005-10-01
_chemical_name_systematic 'Dideuterium sulfide - low phase'
_chemical_formula_structural 'D2 S'
_chemical_formula_sum 'D2 S1'
_exptl_crystal_density_diffrn 1.29
_cell_measurement_temperature 102.
_publ_section_title
'Structure and phase transition in solid hydrogen and deuterium sulphides'
loop_
_citation_id
_citation_journal_full
_citation_year
_citation_journal_volume
_citation_page_first
_citation_page_last
_citation_journal_id_ASTM
primary 'Nature (London, United Kingdom)' 1969 224 905 907 NATUAS
loop_
_publ_author_name
'Sandor, E.'
'Ogunade, S.O.'
_cell_length_a 13.470(5)
_cell_length_b 13.470(5)
_cell_length_c 4.101(4)
_cell_angle_alpha 90.
_cell_angle_beta 90.
_cell_angle_gamma 90.
_cell_volume 744.09
_cell_formula_units_Z 16
_symmetry_space_group_name_H-M 'P 42'
_symmetry_Int_Tables_number 77
_refine_ls_R_factor_all 0.056
loop_
_symmetry_equiv_pos_site_id
_symmetry_equiv_pos_as_xyz
1 'y, -x, z+1/2'
2 '-y, x, z+1/2'
3 '-x, -y, z'
4 'x, y, z'
loop_
_atom_type_symbol
_atom_type_oxidation_number
S2- -2
D1+ 1
loop_
_atom_site_label
_atom_site_type_symbol
_atom_site_symmetry_multiplicity
_atom_site_Wyckoff_symbol
_atom_site_fract_x
_atom_site_fract_y
_atom_site_fract_z
_atom_site_B_iso_or_equiv
_atom_site_occupancy
_atom_site_attached_hydrogens
S1 S2- 4 d 0.110(2) 0.140(2) 0 2.15 1. 0
S2 S2- 4 d 0.610(2) 0.140(2) 0 2.15 1. 0
S3 S2- 4 d 0.110(2) 0.640(2) 0 2.15 1. 0
S4 S2- 4 d 0.610(2) 0.640(2) 0 2.15 1. 0
D1 D1+ 4 d 0.193(1) 0.141(1) 0.163(3) 5.87 1. 0
D2 D1+ 4 d 0.091(1) 0.059(1) -.163(3) 5.87 1. 0
D3 D1+ 4 d 0.693(1) 0.141(1) 0.163(3) 5.87 1. 0
D4 D1+ 4 d 0.591(1) 0.059(1) -.163(3) 5.87 1. 0
D5 D1+ 4 d 0.193(1) 0.641(1) 0.163(3) 5.87 1. 0
D6 D1+ 4 d 0.091(1) 0.559(1) -.163(3) 5.87 1. 0
D7 D1+ 4 d 0.693(1) 0.641(1) -.163(3) 5.87 1. 0
D8 D1+ 4 d 0.591(1) 0.559(1) 0.163(3) 5.87 1. 0
#End of TTdata_27034-ICSD