
#(C) 2017 by FIZ Karlsruhe - Leibniz Institute for Information Infrastructure.  All rights reserved.
data_15907-ICSD
_database_code_ICSD 15907
_audit_creation_date 1986-08-05
_audit_update_record 2010-08-01
_chemical_name_systematic 'Dihydrogen oxide - Ice II, HP'
_chemical_formula_structural 'H2 O'
_chemical_formula_sum 'H2 O1'
_chemical_name_structure_type Ice(II)
_chemical_name_mineral 'Ice II'
_exptl_crystal_density_diffrn 1.18
_cell_measurement_temperature 123.
_publ_section_title 'Ice II: A proton - ordered form of ice'
loop_
_citation_id
_citation_journal_full
_citation_year
_citation_journal_volume
_citation_page_first
_citation_page_last
_citation_journal_id_ASTM
primary 'Acta Crystallographica (1,1948-23,1967)' 1964 17 1437 1449 ACCRA9
loop_
_publ_author_name
'Kamb, B.'
_cell_length_a 7.78(1)
_cell_length_b 7.78
_cell_length_c 7.78
_cell_angle_alpha 113.1(2)
_cell_angle_beta 113.1
_cell_angle_gamma 113.1
_cell_volume 304.25
_cell_formula_units_Z 12
_symmetry_space_group_name_H-M 'R -3 R'
_symmetry_Int_Tables_number 148
_refine_ls_R_factor_all 0.08
loop_
_symmetry_equiv_pos_site_id
_symmetry_equiv_pos_as_xyz
1 '-z, -x, -y'
2 '-y, -z, -x'
3 '-x, -y, -z'
4 'z, x, y'
5 'y, z, x'
6 'x, y, z'
loop_
_atom_type_symbol
_atom_type_oxidation_number
O2- -2
H1+ 1
loop_
_atom_site_label
_atom_site_type_symbol
_atom_site_symmetry_multiplicity
_atom_site_Wyckoff_symbol
_atom_site_fract_x
_atom_site_fract_y
_atom_site_fract_z
_atom_site_B_iso_or_equiv
_atom_site_occupancy
_atom_site_attached_hydrogens
O1 O2- 6 f 0.273 0.024 -.146 1.93(16) 1. 0
O2 O2- 6 f 0.478 0.75 0.332 1.78(16) 1. 0
H1 H1+ 6 f 0.165 0.069 -.19 2.10(16) 1. 0
H2 H1+ 6 f 0.413 0.205 -.003 2.10(16) 1. 0
H3 H1+ 6 f 0.719 0.401 0.395 2.10(16) 1. 0
H4 H1+ 6 f 0.741 0.203 0.36 2.10(16) 1. 0
#End of TTdata_15907-ICSD