#------------------------------------------------------------------------------
#$Date: 2018-01-31 02:15:45 +0200 (Wed, 31 Jan 2018) $
#$Revision: 205916 $
#$URL: file:///home/coder/svn-repositories/cod/cif/4/12/71/4127109.cif $
#------------------------------------------------------------------------------
#
# This file is available in the Crystallography Open Database (COD),
# http://www.crystallography.net/
#
# All data on this site have been placed in the public domain by the
# contributors.
#
data_4127109
loop_
_publ_author_name
'Lin, Wenwen'
'Stoumpos, Constantinos C.'
'Kontsevoi, Oleg Y.'
'Liu, Zhifu'
'He, Yihui'
'Das, Sanjib'
'Xu, Yadong'
'McCall, Kyle M.'
'Wessels, Bruce W.'
'Kanatzidis, Mercouri G.'
_publ_section_title
;
 Cu2I2Se6: A Metal-Inorganic-Framework Wide-bandgap Semiconductor for
 Photon Detection at Room Temperature.
;
_journal_name_full               'Journal of the American Chemical Society'
_journal_paper_doi               10.1021/jacs.7b12549
_journal_year                    2018
_chemical_formula_moiety         (CuI)2{Se6}
_chemical_formula_structural     (CuI)2{Se6}
_chemical_formula_sum            'Cu2 I2 Se6'
_chemical_formula_weight         854.7
_chemical_name_common            'Copper Iodide Selenium'
_chemical_name_systematic        ' ?'
_space_group_IT_number           166
_symmetry_cell_setting           trigonal
_symmetry_Int_Tables_number      166
_symmetry_space_group_name_Hall  '-R 3 2"'
_symmetry_space_group_name_H-M   'R -3 m :H'
_cell_angle_alpha                90
_cell_angle_beta                 90
_cell_angle_gamma                120
_cell_formula_units_Z            9
_cell_length_a                   14.0392(9)
_cell_length_b                   14.0392(9)
_cell_length_c                   14.1531(10)
_cell_measurement_reflns_used    5200
_cell_measurement_temperature    293
_cell_measurement_theta_max      29.60
_cell_measurement_theta_min      2.90
_cell_volume                     2415.8(3)
_diffrn_ambient_temperature      293
_diffrn_detector                 'image plate (34 cm diameter)'
_diffrn_detector_area_resol_mean 6.67
_diffrn_detector_type            STOE
_diffrn_measured_fraction_theta_full 1
_diffrn_measured_fraction_theta_max 1
_diffrn_measurement_details      ' 180 frames, detector distance = 100 mm'
_diffrn_measurement_device       '2-circle goniometer'
_diffrn_measurement_device_type  'STOE IPDS 2T'
_diffrn_measurement_method       'rotation method'
_diffrn_radiation_collimation    '0.5 mm diameter, monocapillary'
_diffrn_radiation_monochromator  'plane graphite'
_diffrn_radiation_polarisn_norm  0
_diffrn_radiation_probe          x-ray
_diffrn_radiation_type           'Mo K\a'
_diffrn_radiation_wavelength     0.71073
_diffrn_reflns_av_R_equivalents  0.0432
_diffrn_reflns_av_unetI/netI     0.0088
_diffrn_reflns_limit_h_max       19
_diffrn_reflns_limit_h_min       -19
_diffrn_reflns_limit_k_max       17
_diffrn_reflns_limit_k_min       -16
_diffrn_reflns_limit_l_max       19
_diffrn_reflns_limit_l_min       -19
_diffrn_reflns_number            7221
_diffrn_reflns_theta_full        29.13
_diffrn_reflns_theta_max         29.13
_diffrn_reflns_theta_min         2.9
_diffrn_source
'sealed X-ray tube, 12 x 0.4 mm long-fine focus'
_diffrn_source_current           40
_diffrn_source_power             2.00
_diffrn_source_voltage           50
_exptl_absorpt_coefficient_mu    29.982
_exptl_absorpt_correction_T_max  0.2859
_exptl_absorpt_correction_T_min  0.0639
_exptl_absorpt_correction_type   integration
_exptl_absorpt_process_details   X-SHAPE
_exptl_crystal_colour            'Dark Red'
_exptl_crystal_density_diffrn    5.2871
_exptl_crystal_description       'Monoclinic plate'
_exptl_crystal_F_000             3312
_exptl_crystal_size_max          0.0786
_exptl_crystal_size_mid          0.0476
_exptl_crystal_size_min          0.0243
_refine_diff_density_max         1.13
_refine_diff_density_min         -0.96
_refine_ls_extinction_coef       140
_refine_ls_extinction_method     'B-C mixed type (Becker & Coppens, 1974)'
_refine_ls_goodness_of_fit_gt    1.80
_refine_ls_goodness_of_fit_ref   1.78
_refine_ls_number_constraints    0
_refine_ls_number_parameters     32
_refine_ls_number_reflns         807
_refine_ls_number_restraints     0
_refine_ls_R_factor_all          0.0263
_refine_ls_R_factor_gt           0.0244
_refine_ls_shift/su_max          0.0237
_refine_ls_shift/su_mean         0.0032
_refine_ls_structure_factor_coef Fsqd
_refine_ls_weighting_details     w=1/(\s^2^(I)+0.0004I^2^)
_refine_ls_weighting_scheme      sigma
_refine_ls_wR_factor_gt          0.0493
_refine_ls_wR_factor_ref         0.0496
_reflns_number_gt                783
_reflns_number_total             807
_reflns_threshold_expression     I>2\s(I)
_cod_data_source_file            ja7b12549_si_001.cif
_cod_data_source_block           I
_cod_depositor_comments
;
The following automatic conversions were performed:

'_diffrn_radiation_probe' value 'X-ray' changed to 'x-ray' according
to
/home/data/users/saulius/crontab/automatic-downloads/rss-feeds/ACS/lib/dictionaries/cif_core.dic
dictionary named 'cif_core.dic' version 2.4.2 from 2011-04-26.

Automatic conversion script
Id: cif_fix_values 4973 2017-02-22 13:04:09Z antanas 
;
_cod_original_sg_symbol_H-M      'R -3 m'
_cod_database_code               4127109
loop_
_space_group_symop_id
_space_group_symop_operation_xyz
1 x,y,z
2 -y,x-y,z
3 -x+y,-x,z
4 y,x,-z
5 x-y,-y,-z
6 -x,-x+y,-z
7 -x,-y,-z
8 y,-x+y,-z
9 x-y,x,-z
10 -y,-x,z
11 -x+y,y,z
12 x,x-y,z
13 x+2/3,y+1/3,z+1/3
14 -y+2/3,x-y+1/3,z+1/3
15 -x+y+2/3,-x+1/3,z+1/3
16 y+2/3,x+1/3,-z+1/3
17 x-y+2/3,-y+1/3,-z+1/3
18 -x+2/3,-x+y+1/3,-z+1/3
19 -x+2/3,-y+1/3,-z+1/3
20 y+2/3,-x+y+1/3,-z+1/3
21 x-y+2/3,x+1/3,-z+1/3
22 -y+2/3,-x+1/3,z+1/3
23 -x+y+2/3,y+1/3,z+1/3
24 x+2/3,x-y+1/3,z+1/3
25 x+1/3,y+2/3,z+2/3
26 -y+1/3,x-y+2/3,z+2/3
27 -x+y+1/3,-x+2/3,z+2/3
28 y+1/3,x+2/3,-z+2/3
29 x-y+1/3,-y+2/3,-z+2/3
30 -x+1/3,-x+y+2/3,-z+2/3
31 -x+1/3,-y+2/3,-z+2/3
32 y+1/3,-x+y+2/3,-z+2/3
33 x-y+1/3,x+2/3,-z+2/3
34 -y+1/3,-x+2/3,z+2/3
35 -x+y+1/3,y+2/3,z+2/3
36 x+1/3,x-y+2/3,z+2/3
loop_
_atom_site_label
_atom_site_type_symbol
_atom_site_fract_x
_atom_site_fract_y
_atom_site_fract_z
_atom_site_adp_type
_atom_site_U_iso_or_equiv
_atom_site_site_symmetry_multiplicity
_atom_site_occupancy
_atom_site_calc_flag
I1 I 0.333333 0.01356(3) 0.166667 Uani 0.02060(14) 18 1 d
Se1 Se 0.49518(4) 0.247589(19) 0.37398(4) Uani 0.01600(17) 18 1 d
Se2 Se 0.17130(4) 0.08565(2) 0.38190(4) Uani 0.01820(18) 18 1 d
Se3 Se 0.57946(2) 0.42054(2) 0.02724(4) Uani 0.02153(19) 18 1 d
Cu1 Cu 0.32911(6) 0.16456(3) 0.27429(6) Uani 0.0269(2) 18 1 d
loop_
_atom_site_aniso_label
_atom_site_aniso_type_symbol
_atom_site_aniso_U_11
_atom_site_aniso_U_22
_atom_site_aniso_U_33
_atom_site_aniso_U_12
_atom_site_aniso_U_13
_atom_site_aniso_U_23
I1 I 0.0220(2) 0.01891(16) 0.02190(19) 0.01101(10) -0.00258(12) -0.00129(6)
Se1 Se 0.0144(2) 0.0152(2) 0.0181(2) 0.00721(12) 0.00067(17) 0.00033(9)
Se2 Se 0.0156(3) 0.0182(2) 0.0200(2) 0.00780(13) -0.00095(18) -0.00047(9)
Se3 Se 0.0189(2) 0.0189(2) 0.0264(3) 0.0092(2) 0.00215(10) -0.00215(10)
Cu1 Cu 0.0229(4) 0.0258(3) 0.0311(4) 0.01144(18) 0.0001(3) 0.00004(14)
loop_
_atom_type_symbol
_atom_type_scat_dispersion_real
_atom_type_scat_dispersion_imag
_atom_type_scat_source
Cu 0.3201 1.2651 'International Tables Vol C tables 4.2.6.8 and 6.1.1.1'
I -0.4742 1.8119 'International Tables Vol C tables 4.2.6.8 and 6.1.1.1'
Se -0.0929 2.2259 'International Tables Vol C tables 4.2.6.8 and 6.1.1.1'
loop_
_geom_angle_atom_site_label_1
_geom_angle_atom_site_label_2
_geom_angle_atom_site_label_3
_geom_angle_site_symmetry_1
_geom_angle_site_symmetry_3
_geom_angle
Cu1 I1 Cu1 . 18_555 70.68(3)
Se1 Se1 Se1 28_545 29_555 98.62(3)
Se1 Se1 Cu1 28_545 . 94.71(3)
Se1 Se1 Cu1 29_555 . 94.71(3)
Se3 Se2 Se3 16_445 18_555 102.20(3)
Se3 Se2 Cu1 16_445 . 93.25(3)
Se3 Se2 Cu1 18_555 . 93.25(3)
Se2 Se3 Se2 16_555 18_555 99.69(3)
I1 Cu1 I1 . 19_555 109.32(3)
I1 Cu1 Se1 . . 108.37(4)
I1 Cu1 Se2 . . 112.003(17)
I1 Cu1 Se1 19_555 . 108.370(17)
I1 Cu1 Se2 19_555 . 112.00(4)
Se1 Cu1 Se2 . . 106.61(4)
loop_
_geom_bond_atom_site_label_1
_geom_bond_atom_site_label_2
_geom_bond_site_symmetry_2
_geom_bond_distance
I1 Cu1 . 2.6350(8)
I1 Cu1 18_555 2.6350(11)
Se1 Se1 28_545 2.3814(8)
Se1 Se1 29_555 2.3814(6)
Se1 Cu1 . 2.4632(10)
Se2 Se3 16_445 2.3599(6)
Se2 Se3 18_555 2.3599(7)
Se2 Cu1 . 2.4498(10)
loop_
_refln_index_h
_refln_index_k
_refln_index_l
_refln_F_squared_calc
_refln_F_squared_meas
_refln_F_squared_sigma
_refln_observed_status
-1 2 0 9467. 7471. 451. o
0 3 0 4688. 4899. 297. o
-2 4 0 202261. 190949. 1579. o
-1 5 0 807190. 846483. 16554. o
-3 6 0 1219890. 1317960. 25297. o
0 6 0 267976. 258363. 1562. o
-2 7 0 2595. 2759. 195. o
-4 8 0 1403530. 1523540. 29052. o
-1 8 0 543236. 530558. 2258. o
-3 9 0 348342. 337393. 1989. o
0 9 0 11864. 12046. 285. o
-5 10 0 17366. 16970. 297. o
-2 10 0 62319. 62061. 573. o
-4 11 0 401900. 392750. 1608. o
-1 11 0 36059. 37021. 288. o
-6 12 0 66309. 65917. 474. o
-3 12 0 263. 522. 297. <
0 12 0 1099120. 1132810. 22419. o
-5 13 0 111713. 112597. 318. o
-2 13 0 889. 1240. 273. o
-7 14 0 46845. 46993. 383. o
-4 14 0 37554. 38669. 263. o
-1 14 0 6882. 7557. 315. o
-6 15 0 155993. 154593. 577. o
-3 15 0 13109. 14346. 295. o
0 15 0 18209. 18240. 624. o
-8 16 0 330418. 331078. 932. o
-5 16 0 84795. 86726. 358. o
-2 16 0 9072. 8992. 468. o
-7 17 0 2200. 2656. 236. o
-4 17 0 21845. 22562. 332. o
-1 17 0 23301. 18790. 554. o
-9 18 0 6864. 7053. 355. o
-6 18 0 2071. 2515. 322. o
-8 19 0 52682. 51487. 474. o
0 2 1 144069. 120053. 1833. o
-2 3 1 1924. 1899. 270. o
-4 4 1 150398. 143347. 1246. o
-1 4 1 155822. 146845. 1234. o
-3 5 1 10921. 10955. 335. o
0 5 1 3655. 3842. 276. o
-5 6 1 1616. 1446. 177. o
-2 6 1 45965. 43852. 499. o
-7 7 1 146696. 142830. 965. o
-4 7 1 46835. 45180. 479. o
-1 7 1 10719. 10183. 232. o
-6 8 1 98624. 96376. 716. o
-3 8 1 21238. 20240. 236. o
0 8 1 326314. 317844. 1651. o
-8 9 1 12110. 12433. 220. o
-5 9 1 1566. 1731. 170. o
-2 9 1 29870. 29245. 397. o
-10 10 1 343. 771. 285. o
-7 10 1 20715. 20541. 296. o
-4 10 1 1140. 1302. 176. o
-1 10 1 23485. 22830. 276. o
-9 11 1 18652. 18707. 276. o
-6 11 1 19774. 20083. 220. o
-3 11 1 3726. 3750. 281. o
0 11 1 32541. 32436. 402. o
-11 12 1 2. 206. 231. <
-8 12 1 57145. 57736. 264. o
-5 12 1 39766. 39799. 267. o
-2 12 1 866. 1082. 237. o
-13 13 1 10392. 10661. 381. o
-10 13 1 39447. 39901. 484. o
-7 13 1 14963. 14968. 231. o
-4 13 1 47737. 48214. 275. o
-1 13 1 17574. 18352. 339. o
-12 14 1 20076. 21199. 340. o
-9 14 1 7685. 7783. 214. o
-6 14 1 91195. 91362. 346. o
-3 14 1 57167. 57960. 308. o
0 14 1 47742. 46650. 698. o
-14 15 1 1547. 1929. 298. o
-11 15 1 10432. 10596. 295. o
-8 15 1 6804. 6779. 227. o
-5 15 1 1819. 1820. 213. o
-2 15 1 17547. 18270. 416. o
-16 16 1 1402. 2105. 565. o
-13 16 1 22996. 23905. 316. o
-10 16 1 728. 778. 255. o
-7 16 1 19206. 20105. 231. o
-4 16 1 1652. 2404. 248. o
-1 16 1 23836. 23302. 448. o
-15 17 1 5064. 5260. 366. o
-12 17 1 2203. 2180. 305. o
-9 17 1 19074. 19192. 323. o
-6 17 1 12091. 12225. 270. o
-3 17 1 28879. 28104. 462. o
-14 18 1 3195. 3617. 316. o
-11 18 1 55. 898. 291. o
-8 18 1 1534. 1564. 298. o
-5 18 1 7810. 7394. 340. o
-10 19 1 7266. 7032. 339. o
0 1 2 491. 1467. 681. o
-2 2 2 5932. 6151. 374. o
-1 3 2 12988. 11825. 470. o
-3 4 2 190871. 175031. 1556. o
0 4 2 66627. 63143. 739. o
-5 5 2 5597. 5808. 259. o
-2 5 2 25574. 25082. 373. o
-4 6 2 3586. 3869. 281. o
-1 6 2 11546. 11451. 272. o
-6 7 2 4255. 4012. 198. o
-3 7 2 4926. 5008. 227. o
0 7 2 215564. 209762. 1229. o
-8 8 2 248099. 245911. 1039. o
-5 8 2 63518. 62064. 417. o
-2 8 2 13316. 12734. 302. o
-7 9 2 13. 243. 249. <
-4 9 2 89. 237. 188. <
-1 9 2 20100. 20017. 262. o
-9 10 2 14106. 14090. 219. o
-6 10 2 25270. 25337. 326. o
-3 10 2 6375. 6331. 228. o
0 10 2 23910. 23339. 373. o
-11 11 2 87761. 86454. 582. o
-8 11 2 531. 863. 279. o
-5 11 2 66314. 65513. 359. o
-2 11 2 17243. 17211. 302. o
-10 12 2 12510. 12596. 254. o
-7 12 2 66814. 66134. 351. o
-4 12 2 41351. 42116. 257. o
-1 12 2 11898. 12270. 256. o
-12 13 2 5474. 5472. 257. o
-9 13 2 62423. 62914. 370. o
-6 13 2 18567. 19559. 223. o
-3 13 2 6038. 6204. 275. o
0 13 2 9411. 9447. 536. o
-14 14 2 32213. 32052. 538. o
-11 14 2 63164. 63850. 479. o
-8 14 2 31040. 31099. 299. o
-5 14 2 25277. 25525. 247. o
-2 14 2 3892. 4149. 274. o
-13 15 2 1414. 1904. 279. o
-10 15 2 1556. 1929. 261. o
-7 15 2 411. 759. 231. o
-4 15 2 33560. 34654. 273. o
-1 15 2 7003. 7542. 384. o
-15 16 2 49297. 46934. 546. o
-12 16 2 718. 1440. 273. o
-9 16 2 3469. 3376. 263. o
-6 16 2 14829. 15529. 308. o
-3 16 2 40346. 40794. 347. o
0 16 2 1132. 1289. 742. <
-14 17 2 24930. 23811. 378. o
-11 17 2 43594. 41716. 417. o
-8 17 2 24662. 25593. 335. o
-5 17 2 186. 638. 334. <
-2 17 2 3739. 3742. 580. o
-13 18 2 5691. 5381. 295. o
-10 18 2 5318. 5556. 329. o
-7 18 2 179. 801. 340. o
-4 18 2 1. 929. 510. <
-9 19 2 1415. 1813. 322. o
0 0 3 325181. 314926. 4025. o
-1 2 3 466534. 454403. 2548. o
-3 3 3 1061590. 1146990. 22115. o
0 3 3 1950030. 2250820. 41947. o
-2 4 3 38405. 36423. 442. o
-4 5 3 26174. 25753. 307. o
-1 5 3 37851. 35263. 497. o
-6 6 3 545702. 538044. 2156. o
-3 6 3 61013. 57242. 591. o
0 6 3 443658. 429029. 2683. o
-5 7 3 232509. 223011. 1353. o
-2 7 3 333757. 316517. 2079. o
-7 8 3 45694. 44909. 315. o
-4 8 3 1380860. 1533740. 28806. o
-1 8 3 1037. 1497. 231. o
-9 9 3 442665. 428268. 2191. o
-6 9 3 76161. 74613. 558. o
-3 9 3 128845. 127238. 694. o
0 9 3 173392. 166559. 1103. o
-8 10 3 8507. 8508. 266. o
-5 10 3 63919. 62294. 507. o
-2 10 3 1670. 1815. 256. o
-10 11 3 195507. 190511. 905. o
-7 11 3 1093. 1588. 267. o
-4 11 3 46174. 46672. 458. o
-1 11 3 148850. 145044. 755. o
-12 12 3 93388. 96214. 433. o
-9 12 3 142521. 141268. 641. o
-6 12 3 151299. 148740. 705. o
-3 12 3 310986. 303102. 1503. o
0 12 3 95397. 98096. 494. o
-11 13 3 26868. 28007. 255. o
-8 13 3 5809. 5810. 252. o
-5 13 3 11498. 12008. 273. o
-2 13 3 66507. 67578. 385. o
-13 14 3 13407. 13546. 327. o
-10 14 3 567. 1221. 285. o
-7 14 3 148197. 146623. 620. o
-4 14 3 2477. 2682. 298. o
-1 14 3 5289. 5284. 392. o
-15 15 3 62555. 60011. 827. o
-12 15 3 155802. 155070. 729. o
-9 15 3 3765. 3384. 252. o
-6 15 3 526. 1033. 267. o
-3 15 3 82669. 84172. 427. o
0 15 3 109915. 101496. 1487. o
-14 16 3 144. 862. 334. o
-11 16 3 21294. 22946. 266. o
-8 16 3 227570. 226844. 750. o
-5 16 3 1851. 2861. 296. o
-2 16 3 214. 729. 388. <
-13 17 3 1089. 1569. 273. o
-10 17 3 19119. 19501. 332. o
-7 17 3 5018. 5585. 297. o
-4 17 3 5112. 5610. 377. o
-12 18 3 17930. 17531. 336. o
-9 18 3 12905. 13156. 300. o
-6 18 3 30577. 29607. 449. o
-1 1 4 4084. 4329. 549. o
0 2 4 397. 571. 444. <
-2 3 4 18926. 18879. 313. o
-4 4 4 1331510. 1522380. 28160. o
-1 4 4 452188. 436535. 2526. o
-3 5 4 161. 358. 267. <
0 5 4 546909. 524525. 3564. o
-5 6 4 235. 328. 206. <
-2 6 4 36173. 33849. 453. o
-7 7 4 268739. 264379. 1220. o
-4 7 4 25037. 24700. 306. o
-1 7 4 84435. 81040. 655. o
-6 8 4 4039. 4004. 203. o
-3 8 4 26873. 26858. 318. o
0 8 4 269206. 262023. 1578. o
-8 9 4 217886. 214968. 815. o
-5 9 4 2305. 2667. 268. o
-2 9 4 15484. 15485. 321. o
-10 10 4 55202. 56520. 381. o
-7 10 4 99940. 99250. 506. o
-4 10 4 10246. 10082. 262. o
-1 10 4 16112. 16063. 302. o
-9 11 4 200. 607. 218. o
-6 11 4 2446. 2599. 268. o
-3 11 4 491017. 484103. 1816. o
0 11 4 34050. 31736. 547. o
-11 12 4 709. 991. 212. o
-8 12 4 307788. 304282. 1069. o
-5 12 4 120638. 120955. 612. o
-2 12 4 25201. 25660. 327. o
-13 13 4 17091. 17956. 396. o
-10 13 4 8340. 8334. 234. o
-7 13 4 29129. 28760. 285. o
-4 13 4 14608. 15704. 336. o
-1 13 4 13971. 13788. 344. o
-12 14 4 11010. 11242. 263. o
-9 14 4 23957. 25322. 236. o
-6 14 4 9126. 8935. 285. o
-3 14 4 1523. 1953. 304. o
0 14 4 69272. 66168. 785. o
-14 15 4 7079. 7321. 293. o
-11 15 4 125478. 124682. 757. o
-8 15 4 4191. 4389. 280. o
-5 15 4 40615. 43288. 292. o
-2 15 4 14949. 15059. 409. o
-16 16 4 104857. 94124. 1115. o
-13 16 4 14635. 16130. 362. o
-10 16 4 10996. 12036. 240. o
-7 16 4 10326. 10698. 311. o
-4 16 4 179394. 177529. 834. o
-1 16 4 24336. 24173. 537. o
-15 17 4 31. 765. 376. o
-12 17 4 57976. 58090. 364. o
-9 17 4 11475. 10946. 308. o
-6 17 4 27167. 27273. 396. o
-3 17 4 24539. 22704. 507. o
-11 18 4 23798. 23805. 327. o
-8 18 4 98. 935. 333. o
-5 18 4 2913. 2548. 391. o
0 1 5 40. 486. 407. <
-2 2 5 21003. 20021. 551. o
-1 3 5 1326. 1518. 280. o
-3 4 5 179822. 172989. 1030. o
0 4 5 810383. 874244. 16964. o
-5 5 5 341381. 336726. 1749. o
-2 5 5 9793. 9191. 367. o
-4 6 5 49653. 47677. 412. o
-1 6 5 2129. 2088. 263. o
-6 7 5 32077. 32347. 280. o
-3 7 5 10552. 10765. 260. o
0 7 5 77888. 73386. 846. o
-8 8 5 120540. 120370. 595. o
-5 8 5 36909. 37355. 324. o
-2 8 5 223. 401. 298. <
-7 9 5 10847. 11160. 226. o
-4 9 5 305. 431. 200. o
-1 9 5 139038. 133089. 896. o
-9 10 5 8916. 9294. 212. o
-6 10 5 52740. 53273. 335. o
-3 10 5 49835. 49048. 395. o
0 10 5 55272. 53146. 640. o
-11 11 5 48581. 49005. 409. o
-8 11 5 286243. 282057. 1085. o
-5 11 5 12057. 12430. 250. o
-2 11 5 4119. 4399. 268. o
-10 12 5 28736. 29645. 268. o
-7 12 5 59117. 60507. 296. o
-4 12 5 177336. 176827. 676. o
-1 12 5 2123. 2163. 280. o
-12 13 5 14820. 14953. 278. o
-9 13 5 7571. 8015. 242. o
-6 13 5 15901. 16126. 290. o
-3 13 5 15096. 15362. 327. o
0 13 5 16660. 15861. 499. o
-14 14 5 27022. 26459. 483. o
-11 14 5 12493. 13264. 263. o
-8 14 5 10304. 10309. 315. o
-5 14 5 21477. 22082. 310. o
-2 14 5 1790. 2070. 304. o
-13 15 5 11534. 11469. 279. o
-10 15 5 17826. 18121. 396. o
-7 15 5 1185. 1557. 224. o
-4 15 5 57613. 59948. 391. o
-1 15 5 422. 790. 352. o
-15 16 5 9066. 9770. 352. o
-12 16 5 120347. 118371. 807. o
-9 16 5 13569. 14575. 278. o
-6 16 5 19526. 20996. 340. o
-3 16 5 6625. 6880. 379. o
0 16 5 77134. 47074. 1416. o
-14 17 5 30809. 28780. 538. o
-11 17 5 20805. 21630. 278. o
-8 17 5 11525. 12150. 290. o
-5 17 5 53531. 52872. 528. o
-2 17 5 1288. 1393. 803. <
-10 18 5 3422. 3874. 291. o
-7 18 5 7516. 7716. 312. o
0 0 6 339192. 342894. 2473. o
-1 2 6 51394. 51429. 401. o
-3 3 6 743772. 783181. 15328. o
0 3 6 182421. 170637. 1448. o
-2 4 6 295776. 289843. 1329. o
-4 5 6 1974. 2124. 219. o
-1 5 6 191243. 185188. 1106. o
-6 6 6 54713. 56108. 541. o
-3 6 6 419472. 410713. 1834. o
0 6 6 108910. 108088. 720. o
-5 7 6 35336. 35137. 316. o
-2 7 6 9455. 9326. 262. o
-7 8 6 119387. 118517. 519. o
-4 8 6 83505. 83991. 399. o
-1 8 6 1543. 1870. 249. o
-9 9 6 59196. 60238. 401. o
-6 9 6 227118. 221755. 1072. o
-3 9 6 152967. 145225. 931. o
0 9 6 253037. 241693. 1571. o
-8 10 6 68086. 67512. 366. o
-5 10 6 17906. 18918. 231. o
-2 10 6 109977. 107434. 583. o
-10 11 6 829. 1192. 200. o
-7 11 6 1088. 1356. 212. o
-4 11 6 81126. 80209. 420. o
-1 11 6 6204. 6029. 277. o
-12 12 6 28837. 29864. 380. o
-9 12 6 136376. 134498. 608. o
-6 12 6 25251. 25120. 270. o
-3 12 6 26037. 25722. 293. o
0 12 6 27665. 27345. 500. o
-11 13 6 12687. 12832. 271. o
-8 13 6 419. 692. 212. o
-5 13 6 29667. 30048. 263. o
-2 13 6 215. 607. 291. o
-13 14 6 2158. 2613. 279. o
-10 14 6 59883. 62403. 226. o
-7 14 6 1145. 1624. 249. o
-4 14 6 21057. 21808. 273. o
-1 14 6 8215. 8399. 337. o
-15 15 6 28177. 27359. 561. o
-12 15 6 5224. 5538. 280. o
-9 15 6 28745. 30527. 327. o
-6 15 6 59870. 65209. 1292. o
-3 15 6 44654. 44683. 382. o
0 15 6 1478. 1892. 419. o
-14 16 6 6887. 7108. 318. o
-11 16 6 13327. 13913. 410. o
-8 16 6 6901. 7356. 279. o
-5 16 6 177. 692. 267. o
-2 16 6 12749. 11754. 374. o
-13 17 6 7207. 7301. 325. o
-10 17 6 680. 1246. 279. o
-7 17 6 9625. 10008. 298. o
-4 17 6 440. 802. 322. o
-9 18 6 9240. 9274. 314. o
-1 1 7 1532. 1769. 360. o
0 2 7 64661. 60076. 676. o
-2 3 7 109668. 107277. 625. o
-4 4 7 536315. 555093. 10976. o
-1 4 7 512033. 531236. 10443. o
-3 5 7 107969. 105121. 629. o
0 5 7 116159. 113284. 969. o
-5 6 7 37978. 38830. 311. o
-2 6 7 60909. 60199. 497. o
-7 7 7 549781. 571500. 11289. o
-4 7 7 2634. 2749. 275. o
-1 7 7 47936. 47331. 365. o
-6 8 7 16165. 16583. 257. o
-3 8 7 41014. 39375. 374. o
0 8 7 643917. 662812. 13120. o
-8 9 7 109103. 109788. 341. o
-5 9 7 1199. 1588. 255. o
-2 9 7 9401. 9833. 230. o
-10 10 7 47257. 48445. 391. o
-7 10 7 34936. 33954. 375. o
-4 10 7 137134. 136272. 534. o
-1 10 7 363. 589. 237. o
-9 11 7 75320. 76764. 307. o
-6 11 7 140475. 140959. 436. o
-3 11 7 94189. 94129. 414. o
0 11 7 53822. 56408. 404. o
-11 12 7 4631. 5029. 230. o
-8 12 7 223613. 224741. 483. o
-5 12 7 193138. 197181. 3929. o
-2 12 7 38343. 38531. 304. o
-13 13 7 1431. 5348. 360. o
-10 13 7 2171. 2455. 267. o
-7 13 7 56. 389. 224. <
-4 13 7 92516. 92306. 424. o
-1 13 7 3513. 3962. 261. o
-12 14 7 7896. 8322. 273. o
-9 14 7 19791. 19422. 295. o
-6 14 7 5389. 5714. 268. o
-3 14 7 161888. 161892. 577. o
0 14 7 375. 954. 376. o
-14 15 7 41840. 40235. 429. o
-11 15 7 143157. 142513. 618. o
-8 15 7 26. 716. 261. o
-5 15 7 14931. 16357. 284. o
-2 15 7 541. 1409. 285. o
-13 16 7 66798. 65207. 522. o
-10 16 7 32066. 32398. 381. o
-7 16 7 3763. 4548. 271. o
-4 16 7 48860. 47309. 521. o
-1 16 7 105753. 90539. 1262. o
-12 17 7 2941. 3042. 329. o
-9 17 7 23274. 24130. 342. o
-6 17 7 33679. 34192. 343. o
0 1 8 36005. 35200. 483. o
-2 2 8 19503. 19136. 388. o
-1 3 8 5438. 5475. 271. o
-3 4 8 65107. 66192. 326. o
0 4 8 163997. 161030. 967. o
-5 5 8 1392. 1559. 292. o
-2 5 8 19180. 19116. 344. o
-4 6 8 61. 376. 291. <
-1 6 8 2385. 2588. 299. o
-6 7 8 36. 352. 255. <
-3 7 8 83398. 82332. 532. o
0 7 8 74624. 71274. 630. o
-8 8 8 302262. 302606. 1200. o
-5 8 8 1562. 1559. 244. o
-2 8 8 23600. 23316. 286. o
-7 9 8 2108. 2194. 256. o
-4 9 8 5214. 5411. 244. o
-1 9 8 8329. 8735. 243. o
-9 10 8 10474. 11019. 235. o
-6 10 8 5436. 5882. 261. o
-3 10 8 1560. 2143. 236. o
0 10 8 15310. 15640. 389. o
-11 11 8 2668. 2866. 304. o
-8 11 8 3257. 3450. 286. o
-5 11 8 36885. 37337. 282. o
-2 11 8 22543. 23161. 277. o
-10 12 8 3417. 3767. 255. o
-7 12 8 27242. 28817. 256. o
-4 12 8 82270. 82160. 379. o
-1 12 8 2788. 3269. 248. o
-12 13 8 14981. 16113. 282. o
-9 13 8 38766. 39648. 293. o
-6 13 8 9522. 9904. 243. o
-3 13 8 12643. 13246. 271. o
0 13 8 10243. 9837. 379. o
-14 14 8 30534. 30199. 507. o
-11 14 8 63747. 63327. 423. o
-8 14 8 22129. 22896. 266. o
-5 14 8 10651. 10742. 258. o
-2 14 8 8732. 9020. 293. o
-13 15 8 3361. 3099. 294. o
-10 15 8 294. 802. 261. o
-7 15 8 16858. 17193. 288. o
-4 15 8 5533. 5326. 277. o
-1 15 8 7025. 6907. 301. o
-12 16 8 8009. 8527. 341. o
-9 16 8 19131. 20030. 310. o
-6 16 8 4922. 4856. 306. o
-3 16 8 25330. 23154. 396. o
-11 17 8 18926. 18558. 404. o
-8 17 8 12935. 13018. 333. o
-5 17 8 351. 753. 370. o
0 0 9 1826350. 2211400. 39874. o
-1 2 9 32961. 32556. 345. o
-3 3 9 7711. 8213. 368. o
0 3 9 133949. 131242. 847. o
-2 4 9 27685. 28242. 290. o
-4 5 9 306141. 311287. 6203. o
-1 5 9 122304. 121304. 620. o
-6 6 9 240965. 236953. 1132. o
-3 6 9 294049. 295850. 649. o
0 6 9 169615. 167343. 951. o
-5 7 9 7537. 7598. 283. o
-2 7 9 12666. 12944. 327. o
-7 8 9 74864. 75221. 448. o
-4 8 9 183716. 181539. 724. o
-1 8 9 222179. 221391. 685. o
-9 9 9 34828. 36240. 336. o
-6 9 9 123641. 120351. 631. o
-3 9 9 147758. 148580. 445. o
0 9 9 6395. 6559. 380. o
-8 10 9 18408. 18775. 301. o
-5 10 9 12895. 13176. 270. o
-2 10 9 5723. 5857. 244. o
-10 11 9 390. 826. 255. o
-7 11 9 173198. 171324. 701. o
-4 11 9 47350. 47553. 307. o
-1 11 9 110. 577. 255. o
-12 12 9 299452. 302702. 660. o
-9 12 9 958. 1034. 243. o
-6 12 9 59523. 60889. 276. o
-3 12 9 16165. 16026. 264. o
0 12 9 296896. 290752. 1371. o
-11 13 9 184. 461. 279. <
-8 13 9 56657. 57963. 327. o
-5 13 9 27135. 27642. 292. o
-2 13 9 2085. 2600. 254. o
-13 14 9 4981. 5578. 303. o
-10 14 9 1386. 1971. 267. o
-7 14 9 94. 692. 273. o
-4 14 9 13412. 13758. 268. o
-1 14 9 1914. 2192. 267. o
-12 15 9 3758. 3828. 287. o
-9 15 9 49398. 49576. 352. o
-6 15 9 40376. 40360. 361. o
-3 15 9 2771. 2901. 268. o
-11 16 9 12312. 12753. 311. o
-8 16 9 62983. 61861. 478. o
-5 16 9 34045. 33150. 403. o
-1 1 10 364. 851. 358. o
0 2 10 202639. 199719. 1040. o
-2 3 10 72350. 71583. 423. o
-4 4 10 164807. 168211. 542. o
-1 4 10 31640. 32174. 297. o
-3 5 10 19232. 19887. 285. o
0 5 10 69900. 69650. 679. o
-5 6 10 18053. 18204. 262. o
-2 6 10 87745. 86757. 510. o
-7 7 10 22995. 22641. 530. o
-4 7 10 4012. 4387. 311. o
-1 7 10 110287. 111540. 441. o
-6 8 10 138149. 137897. 560. o
-3 8 10 15892. 15651. 273. o
0 8 10 14759. 15137. 376. o
-8 9 10 25676. 27016. 341. o
-5 9 10 1369. 1576. 249. o
-2 9 10 46626. 47478. 294. o
-10 10 10 14286. 15632. 435. o
-7 10 10 114664. 114518. 457. o
-4 10 10 34480. 35016. 286. o
-1 10 10 27359. 27608. 279. o
-9 11 10 7108. 8034. 263. o
-6 11 10 6847. 7437. 266. o
-3 11 10 117622. 119024. 332. o
0 11 10 31934. 31520. 435. o
-11 12 10 1628. 2142. 291. o
-8 12 10 49990. 50546. 353. o
-5 12 10 11404. 12368. 241. o
-2 12 10 11951. 12336. 255. o
-13 13 10 9505. 9212. 420. o
-10 13 10 19254. 20252. 282. o
-7 13 10 29618. 30464. 302. o
-4 13 10 439. 777. 249. o
-1 13 10 7944. 8301. 274. o
-12 14 10 46204. 45109. 398. o
-9 14 10 2835. 3371. 260. o
-6 14 10 79228. 80790. 323. o
-3 14 10 1764. 2319. 267. o
0 14 10 92110. 85465. 842. o
-11 15 10 24146. 23775. 328. o
-8 15 10 320. 905. 261. o
-5 15 10 42670. 40954. 399. o
-2 15 10 24990. 23668. 358. o
-10 16 10 3977. 4085. 287. o
-7 16 10 4653. 4578. 288. o
0 1 11 46284. 46221. 528. o
-2 2 11 33229. 33863. 429. o
-1 3 11 9206. 9402. 246. o
-3 4 11 46417. 46728. 341. o
0 4 11 35618. 35913. 429. o
-5 5 11 745. 979. 328. o
-2 5 11 12. 510. 230. o
-4 6 11 16774. 17485. 270. o
-1 6 11 686. 802. 261. o
-6 7 11 30928. 32560. 296. o
-3 7 11 25058. 25058. 311. o
0 7 11 67016. 66614. 497. o
-8 8 11 3127. 3583. 408. o
-5 8 11 95451. 95929. 432. o
-2 8 11 31649. 32232. 284. o
-7 9 11 13327. 14261. 280. o
-4 9 11 13884. 13396. 268. o
-1 9 11 3935. 4364. 255. o
-9 10 11 10241. 10680. 286. o
-6 10 11 1600. 1844. 267. o
-3 10 11 42179. 42374. 318. o
0 10 11 1531. 1959. 358. o
-11 11 11 123398. 122675. 776. o
-8 11 11 626. 1118. 261. o
-5 11 11 1435. 1722. 243. o
-2 11 11 640. 1191. 236. o
-10 12 11 511. 1118. 267. o
-7 12 11 16673. 15935. 298. o
-4 12 11 5049. 5452. 242. o
-1 12 11 37752. 38330. 322. o
-12 13 11 109. 923. 297. o
-9 13 11 26123. 26900. 311. o
-6 13 11 12562. 13319. 282. o
-3 13 11 14542. 14633. 278. o
0 13 11 1352. 2427. 449. o
-11 14 11 3708. 4200. 291. o
-8 14 11 54169. 54691. 367. o
-5 14 11 6799. 7304. 272. o
-2 14 11 7613. 7410. 278. o
-10 15 11 11232. 10850. 306. o
-7 15 11 19060. 19358. 351. o
-4 15 11 7922. 8488. 303. o
0 0 12 69338. 70449. 894. o
-1 2 12 134472. 133627. 538. o
-3 3 12 437612. 450857. 8925. o
0 3 12 304060. 310354. 6204. o
-2 4 12 1333. 1546. 243. o
-4 5 12 1003. 1374. 237. o
-1 5 12 170. 407. 237. <
-6 6 12 176071. 179925. 325. o
-3 6 12 13258. 13907. 271. o
0 6 12 217958. 230133. 4537. o
-5 7 12 100410. 103078. 247. o
-2 7 12 106104. 108708. 271. o
-7 8 12 204. 601. 279. o
-4 8 12 443420. 470739. 9103. o
-1 8 12 7564. 8123. 266. o
-9 9 12 114933. 117030. 697. o
-6 9 12 23963. 24373. 327. o
-3 9 12 22538. 22315. 301. o
0 9 12 104444. 106469. 485. o
-8 10 12 538. 1142. 267. o
-5 10 12 32719. 31979. 327. o
-2 10 12 259. 765. 243. o
-10 11 12 71572. 71434. 423. o
-7 11 12 14635. 14940. 282. o
-4 11 12 424. 826. 243. o
-1 11 12 63368. 64105. 322. o
-12 12 12 36864. 35767. 594. o
-9 12 12 85428. 86369. 408. o
-6 12 12 77422. 76215. 451. o
-3 12 12 78672. 79026. 359. o
0 12 12 40265. 38961. 480. o
-11 13 12 22980. 22563. 346. o
-8 13 12 95. 832. 273. o
-5 13 12 708. 990. 285. o
-2 13 12 23110. 23296. 323. o
-10 14 12 204. 783. 285. o
-7 14 12 58336. 56737. 458. o
-4 14 12 1612. 2051. 273. o
-9 15 12 220. 1834. 1111. <
-6 15 12 133. 692. 686. <
-1 1 13 14242. 14315. 398. o
0 2 13 12531. 12533. 391. o
-2 3 13 6780. 7014. 257. o
-4 4 13 8863. 9758. 370. o
-1 4 13 8634. 9009. 249. o
-3 5 13 11545. 11724. 264. o
0 5 13 38671. 38569. 495. o
-5 6 13 3738. 4094. 249. o
-2 6 13 30203. 30852. 302. o
-7 7 13 2256. 2657. 310. o
-4 7 13 32602. 32030. 329. o
-1 7 13 235. 668. 285. o
-6 8 13 1923. 2192. 237. o
-3 8 13 247. 1099. 260. o
0 8 13 6398. 6784. 403. o
-8 9 13 12098. 12419. 356. o
-5 9 13 3516. 3785. 286. o
-2 9 13 6. 492. 273. <
-10 10 13 33718. 33692. 434. o
-7 10 13 15. 710. 261. o
-4 10 13 20177. 20516. 307. o
-1 10 13 2219. 2436. 274. o
-9 11 13 8026. 7848. 333. o
-6 11 13 20849. 21093. 315. o
-3 11 13 41314. 40721. 336. o
0 11 13 883. 1045. 346. o
-11 12 13 2394. 2613. 316. o
-8 12 13 1279. 1636. 298. o
-5 12 13 1579. 1959. 267. o
-2 12 13 18623. 18232. 306. o
-10 13 13 1720. 2173. 303. o
-7 13 13 2506. 2736. 286. o
-4 13 13 24. 437. 273. <
-9 14 13 6839. 6714. 362. o
-6 14 13 152. 929. 273. o
0 1 14 59480. 57235. 561. o
-2 2 14 14953. 15385. 401. o
-1 3 14 10317. 10402. 271. o
-3 4 14 39269. 39845. 304. o
0 4 14 7246. 8445. 368. o
-5 5 14 90451. 94636. 364. o
-2 5 14 11830. 12486. 245. o
-4 6 14 39505. 39638. 306. o
-1 6 14 6758. 6667. 307. o
-6 7 14 206. 395. 304. <
-3 7 14 88358. 88529. 405. o
0 7 14 16983. 17068. 492. o
-8 8 14 8563. 8662. 436. o
-5 8 14 8022. 8110. 295. o
-2 8 14 2412. 2681. 298. o
-7 9 14 1003. 1757. 291. o
-4 9 14 22207. 21648. 336. o
-1 9 14 41345. 41696. 330. o
-9 10 14 2314. 2491. 353. o
-6 10 14 21212. 21132. 315. o
-3 10 14 30. 935. 267. o
0 10 14 56278. 54385. 552. o
-11 11 14 3699. 3540. 409. o
-8 11 14 79114. 76970. 537. o
-5 11 14 29484. 28814. 339. o
-2 11 14 7026. 7184. 281. o
-10 12 14 22510. 21104. 379. o
-7 12 14 15424. 14812. 306. o
-4 12 14 152. 856. 261. o
-6 13 14 5450. 5367. 294. o
0 0 15 282102. 287659. 1364. o
-1 2 15 428. 923. 267. o
-3 3 15 27060. 28646. 396. o
0 3 15 46911. 47564. 480. o
-2 4 15 103662. 105223. 262. o
-4 5 15 38740. 39480. 297. o
-1 5 15 32501. 34334. 239. o
-6 6 15 6246. 6609. 397. o
-3 6 15 158678. 160680. 256. o
0 6 15 2314. 3473. 387. o
-5 7 15 195. 893. 279. o
-2 7 15 219. 868. 267. o
-7 8 15 23688. 24452. 331. o
-4 8 15 7353. 7448. 300. o
-1 8 15 35711. 37118. 339. o
-9 9 15 18679. 18391. 521. o
-6 9 15 68049. 68852. 370. o
-3 9 15 71901. 72384. 343. o
0 9 15 20037. 19884. 427. o
-8 10 15 49139. 49510. 445. o
-5 10 15 885. 1416. 255. o
-2 10 15 38757. 37368. 385. o
-10 11 15 2782. 3621. 950. o
-7 11 15 34057. 32247. 388. o
-4 11 15 16571. 15382. 327. o
-1 11 15 2287. 2966. 633. o
-6 12 15 852. 1197. 279. o
-1 1 16 13072. 12671. 400. o
0 2 16 7065. 7576. 390. o
-2 3 16 7112. 7638. 260. o
-4 4 16 26000. 26428. 384. o
-1 4 16 83911. 85048. 300. o
-3 5 16 14261. 15374. 269. o
0 5 16 23294. 23171. 423. o
-5 6 16 4815. 5412. 272. o
-2 6 16 5547. 6270. 277. o
-7 7 16 94286. 92221. 729. o
-4 7 16 6142. 6581. 298. o
-1 7 16 2055. 2576. 297. o
-6 8 16 1990. 2332. 279. o
-3 8 16 27070. 25788. 355. o
0 8 16 61383. 58261. 593. o
-8 9 16 23189. 22289. 415. o
-5 9 16 3845. 4365. 291. o
-2 9 16 147. 856. 261. o
-7 10 16 573. 1531. 303. o
-4 10 16 25786. 24422. 337. o
0 1 17 11046. 10578. 380. o
-2 2 17 6246. 6387. 367. o
-1 3 17 1412. 1557. 249. o
-3 4 17 17631. 18086. 279. o
0 4 17 3246. 3685. 365. o
-5 5 17 2010. 2679. 370. o
-2 5 17 781. 1550. 273. o
-4 6 17 2459. 2931. 242. o
-1 6 17 16. 1263. 284. o
-6 7 17 4805. 4940. 311. o
-3 7 17 3211. 3556. 310. o
0 7 17 21491. 20074. 516. o
-5 8 17 27282. 25574. 392. o
-2 8 17 7434. 6923. 304. o
-4 9 17 5822. 5921. 312. o
0 0 18 61066. 58825. 1008. o
-1 2 18 17492. 17016. 300. o
-3 3 18 51013. 47517. 575. o
0 3 18 23195. 22347. 439. o
-2 4 18 516. 1021. 261. o
-4 5 18 5665. 5950. 286. o
-1 5 18 18855. 17698. 347. o
-6 6 18 48973. 45948. 565. o
-3 6 18 18498. 17593. 337. o
0 6 18 59518. 56312. 665. o
-1 1 19 6592. 6651. 404. o
0 2 19 31166. 28409. 508. o
-2 3 19 11333. 11153. 292. o
