
#(C) 2017 by FIZ Karlsruhe - Leibniz Institute for Information Infrastructure.  All rights reserved.
data_165996-ICSD
_database_code_ICSD 165996
_audit_creation_date 2010-08-01
_audit_update_record 2013-08-01
_chemical_name_systematic 'Potassium - oP8'
_chemical_formula_structural K
_chemical_formula_sum K1
_chemical_name_structure_type MnP
_exptl_crystal_density_diffrn 4.39
_cell_measurement_pressure 58000000.
_publ_section_title
'Observation of the oP8 crystal structure in potassium at high pressure'
loop_
_citation_id
_citation_journal_full
_citation_year
_citation_journal_volume
_citation_page_first
_citation_page_last
_citation_journal_id_ASTM
primary 'Physical Review, Serie 3. B - Condensed Matter (18,1978-)' 2009 80
020101-1 020101-4 PRBMDO
loop_
_publ_author_name
'Lundegaard, L.F.'
'Marques, M.'
'Stinton, G.'
'Ackland, G.J.'
'Nelmes, R.J.'
'McMahon, M.I.'
_cell_length_a 5.602(1)
_cell_length_b 3.311(1)
_cell_length_c 6.380(1)
_cell_angle_alpha 90.
_cell_angle_beta 90.
_cell_angle_gamma 90.
_cell_volume 118.34
_cell_formula_units_Z 8
_symmetry_space_group_name_H-M 'P n m a'
_symmetry_Int_Tables_number 62
loop_
_symmetry_equiv_pos_site_id
_symmetry_equiv_pos_as_xyz
1 'x+1/2, y, -z+1/2'
2 'x, -y+1/2, z'
3 '-x+1/2, y+1/2, z+1/2'
4 '-x, -y, -z'
5 '-x+1/2, -y, z+1/2'
6 '-x, y+1/2, -z'
7 'x+1/2, -y+1/2, -z+1/2'
8 'x, y, z'
loop_
_atom_type_symbol
_atom_type_oxidation_number
K0+ 0
loop_
_atom_site_label
_atom_site_type_symbol
_atom_site_symmetry_multiplicity
_atom_site_Wyckoff_symbol
_atom_site_fract_x
_atom_site_fract_y
_atom_site_fract_z
_atom_site_B_iso_or_equiv
_atom_site_occupancy
_atom_site_attached_hydrogens
K1 K0+ 4 c 0.034(1) 0.25 0.156(1) . 1. 0
K2 K0+ 4 c 0.144(1) 0.25 0.567(1) . 1. 0
#End of TTdata_165996-ICSD