
#(C) 2017 by FIZ Karlsruhe - Leibniz Institute for Information Infrastructure.  All rights reserved.
data_66831-ICSD
_database_code_ICSD 66831
_audit_creation_date 1997-05-13
_audit_update_record 1997-11-10
_chemical_name_systematic 'Triindium bis(phosphate(V))'
_chemical_formula_structural 'In3 (P O4)2'
_chemical_formula_sum 'In3 O8 P2'
_exptl_crystal_density_diffrn 5.12
_publ_section_title

;
Synthese et characterisation structurale d'un phosphate d'indium In3 P2 O8
presentant des paires In-In
;
loop_
_citation_id
_citation_journal_full
_citation_year
_citation_journal_volume
_citation_page_first
_citation_page_last
_citation_journal_id_ASTM
primary 'Acta Crystallographica, Section B: Structural Science' 1996 52 905 908
ASBSDK
loop_
_publ_author_name
'Peltier, V.'
'l'Haridon, P.'
'Marchand, R.'
'Laurent, Y.'
_cell_length_a 11.152(1)
_cell_length_b 11.152(1)
_cell_length_c 11.152(1)
_cell_angle_alpha 90.
_cell_angle_beta 90.
_cell_angle_gamma 90.
_cell_volume 1386.94
_cell_formula_units_Z 8
_symmetry_space_group_name_H-M 'I -4 3 d'
_symmetry_Int_Tables_number 220
_refine_ls_R_factor_all 0.03
loop_
_symmetry_equiv_pos_site_id
_symmetry_equiv_pos_as_xyz
1 '-y+1/4, -x+3/4, z+3/4'
2 'y+3/4, -x+1/4, -z+3/4'
3 '-y+3/4, x+3/4, -z+1/4'
4 'y+1/4, x+1/4, z+1/4'
5 'z+1/2, -x+1/2, -y'
6 '-z+1/2, -x, y+1/2'
7 '-z, x+1/2, -y+1/2'
8 'z, x, y'
9 'z+3/4, -y+1/4, -x+3/4'
10 '-z+3/4, y+3/4, -x+1/4'
11 '-z+1/4, -y+3/4, x+3/4'
12 'z+1/4, y+1/4, x+1/4'
13 '-y, z+1/2, -x+1/2'
14 'y+1/2, -z+1/2, -x'
15 '-y+1/2, -z, x+1/2'
16 'y, z, x'
17 '-x+3/4, z+3/4, -y+1/4'
18 '-x+1/4, -z+3/4, y+3/4'
19 'x+3/4, -z+1/4, -y+3/4'
20 'x+1/4, z+1/4, y+1/4'
21 '-x+1/2, -y, z+1/2'
22 '-x, y+1/2, -z+1/2'
23 'x+1/2, -y+1/2, -z'
24 'x, y, z'
25 '-y+3/4, -x+1/4, z+1/4'
26 'y+1/4, -x+3/4, -z+1/4'
27 '-y+1/4, x+1/4, -z+3/4'
28 'y+3/4, x+3/4, z+3/4'
29 'z, -x, -y+1/2'
30 '-z, -x+1/2, y'
31 '-z+1/2, x, -y'
32 'z+1/2, x+1/2, y+1/2'
33 'z+1/4, -y+3/4, -x+1/4'
34 '-z+1/4, y+1/4, -x+3/4'
35 '-z+3/4, -y+1/4, x+1/4'
36 'z+3/4, y+3/4, x+3/4'
37 '-y+1/2, z, -x'
38 'y, -z, -x+1/2'
39 '-y, -z+1/2, x'
40 'y+1/2, z+1/2, x+1/2'
41 '-x+1/4, z+1/4, -y+3/4'
42 '-x+3/4, -z+1/4, y+1/4'
43 'x+1/4, -z+3/4, -y+1/4'
44 'x+3/4, z+3/4, y+3/4'
45 '-x, -y+1/2, z'
46 '-x+1/2, y, -z'
47 'x, -y, -z+1/2'
48 'x+1/2, y+1/2, z+1/2'
loop_
_atom_type_symbol
_atom_type_oxidation_number
In2+ 2
P5+ 5
O2- -2
loop_
_atom_site_label
_atom_site_type_symbol
_atom_site_symmetry_multiplicity
_atom_site_Wyckoff_symbol
_atom_site_fract_x
_atom_site_fract_y
_atom_site_fract_z
_atom_site_B_iso_or_equiv
_atom_site_occupancy
_atom_site_attached_hydrogens
In1 In2+ 24 d 0.49291(4) 0 0.25 . 1. 0
P1 P5+ 16 c 0.29672(8) 0.29672(8) 0.29672(8) . 1. 0
O1 O2- 48 e 0.3805(3) 0.3671(3) 0.2149(4) . 1. 0
O2 O2- 16 c 0.2152(2) 0.2152(2) 0.2152(2) . 1. 0
loop_
_atom_site_aniso_label
_atom_site_aniso_type_symbol
_atom_site_aniso_beta_11
_atom_site_aniso_beta_22
_atom_site_aniso_beta_33
_atom_site_aniso_beta_12
_atom_site_aniso_beta_13
_atom_site_aniso_beta_23
In1 In2+ 0.00174(2) 0.00286(3) 0.00599(3) 0 0 0.00103(4)
P1 P5+ 0.00204(3) 0.00204(3) 0.00204(3) -.00017(8) -.00017(8) -.00017(8)
O1 O2- 0.0039(2) 0.0042(2) 0.0028(2) -.0039(3) -.0002(3) 0.0001(3)
O2 O2- 0.0023(1) 0.0023(1) 0.0023(1) -.0004(2) -.0004(2) -.0004(2)
#End of TTdata_66831-ICSD