
#(C) 2017 by FIZ Karlsruhe - Leibniz Institute for Information Infrastructure, and the U.S. Secretary of
#Commerce on behalf of the United States.  All rights reserved.
data_636533-ICSD
_database_code_ICSD 636533
_audit_creation_date 2010-02-01
_chemical_name_systematic 'Germanium, metastable'
_chemical_formula_structural Ge
_chemical_formula_sum Ge1
_chemical_name_structure_type Wurtzite-ZnS(2H)
_exptl_crystal_density_diffrn 5.48
_publ_section_title 'New crystalline phase of germanium'
_publ_section_comment 'Cell and Type only determined'
loop_
_citation_id
_citation_journal_full
_citation_year
_citation_journal_volume
_citation_page_first
_citation_page_last
_citation_journal_id_ASTM
primary 'Soviet Physics - Solid State (New York)' 1975 17 1647 1648 SPSSA7
loop_
_publ_author_name
'Eremenko, V.G.'
_cell_length_a 3.94(5)
_cell_length_b 3.94(5)
_cell_length_c 6.55(5)
_cell_angle_alpha 90.
_cell_angle_beta 90.
_cell_angle_gamma 120.
_cell_volume 88.06
_cell_formula_units_Z 4
_symmetry_space_group_name_H-M 'P 63 m c'
_symmetry_Int_Tables_number 186
loop_
_symmetry_equiv_pos_site_id
_symmetry_equiv_pos_as_xyz
1 '-x, -x+y, z+1/2'
2 'x-y, -y, z+1/2'
3 'y, x, z+1/2'
4 'x-y, x, z+1/2'
5 'y, -x+y, z+1/2'
6 '-x, -y, z+1/2'
7 'x, x-y, z'
8 '-x+y, y, z'
9 '-y, -x, z'
10 '-x+y, -x, z'
11 '-y, x-y, z'
12 'x, y, z'
loop_
_atom_type_symbol
_atom_type_oxidation_number
Ge0+ 0
loop_
_atom_site_label
_atom_site_type_symbol
_atom_site_symmetry_multiplicity
_atom_site_Wyckoff_symbol
_atom_site_fract_x
_atom_site_fract_y
_atom_site_fract_z
_atom_site_B_iso_or_equiv
_atom_site_occupancy
_atom_site_attached_hydrogens
Ge1 Ge0+ 2 b 0.3333 0.6667 0 . 1. 0
Ge2 Ge0+ 2 b 0.3333 0.6667 0.375 . 1. 0
#End of TTdata_636533-ICSD