
#(C) 2017 by FIZ Karlsruhe - Leibniz Institute for Information Infrastructure.  All rights reserved.
data_42711-ICSD
_database_code_ICSD 42711
_audit_creation_date 2000-07-15
_audit_update_record 2014-08-01
_chemical_name_systematic 'Cerium nickel silicide (1/1/2)'
_chemical_formula_structural 'Ce Ni Si2'
_chemical_formula_sum 'Ce1 Ni1 Si2'
_chemical_name_structure_type BaCuSn2-CeNi(1-x)Si2
_exptl_crystal_density_diffrn 6.12
_publ_section_title 'Crystal structure of Ce Ni Si2 and kindred compounds'
loop_
_citation_id
_citation_journal_full
_citation_year
_citation_journal_volume
_citation_page_first
_citation_page_last
_citation_journal_id_ASTM
primary Kristallografiya 1969 14 990 994 KRISAJ
loop_
_publ_author_name
'Bodak, O.P.'
'Gladyshevskii, E.I.'
_cell_length_a 4.141(5)
_cell_length_b 16.418(5)
_cell_length_c 4.068(5)
_cell_angle_alpha 90.
_cell_angle_beta 90.
_cell_angle_gamma 90.
_cell_volume 276.57
_cell_formula_units_Z 4
_symmetry_space_group_name_H-M 'C m c m'
_symmetry_Int_Tables_number 63
_refine_ls_R_factor_all 0.145
loop_
_symmetry_equiv_pos_site_id
_symmetry_equiv_pos_as_xyz
1 '-x, y, -z+1/2'
2 '-x, -y, z+1/2'
3 '-x, y, z'
4 '-x, -y, -z'
5 'x, -y, z+1/2'
6 'x, y, -z+1/2'
7 'x, -y, -z'
8 'x, y, z'
9 '-x+1/2, y+1/2, -z+1/2'
10 '-x+1/2, -y+1/2, z+1/2'
11 '-x+1/2, y+1/2, z'
12 '-x+1/2, -y+1/2, -z'
13 'x+1/2, -y+1/2, z+1/2'
14 'x+1/2, y+1/2, -z+1/2'
15 'x+1/2, -y+1/2, -z'
16 'x+1/2, y+1/2, z'
loop_
_atom_type_symbol
_atom_type_oxidation_number
Ce0+ 0
Ni0+ 0
Si0+ 0
loop_
_atom_site_label
_atom_site_type_symbol
_atom_site_symmetry_multiplicity
_atom_site_Wyckoff_symbol
_atom_site_fract_x
_atom_site_fract_y
_atom_site_fract_z
_atom_site_B_iso_or_equiv
_atom_site_occupancy
_atom_site_attached_hydrogens
Ce1 Ce0+ 4 c 0 0.1070(2) 0.25 0.85(5) 1. 0
Ni1 Ni0+ 4 c 0 0.3158(8) 0.25 2.95(17) 1. 0
Si1 Si0+ 4 c 0 0.4566(20) 0.25 2.53(37) 1. 0
Si2 Si0+ 4 c 0 0.7492(4) 0.25 0.79(1) 1. 0
#End of TTdata_42711-ICSD