
#(C) 2018 by FIZ Karlsruhe - Leibniz Institute for Information Infrastructure.  All rights reserved.
data_2211-ICSD
_database_code_ICSD 2211
_audit_creation_date 1980-01-01
_audit_update_record 2012-08-01
_chemical_name_systematic 'Vanadium oxide (4/7)'
_chemical_formula_structural 'V4 O7'
_chemical_formula_sum 'O7 V4'
_chemical_name_structure_type V4O7
_exptl_crystal_density_diffrn 4.75
_publ_section_title 'The crystal structure of V4 O7 at 120 K'
loop_
_citation_id
_citation_journal_full
_citation_year
_citation_journal_volume
_citation_page_first
_citation_page_last
_citation_journal_id_ASTM
primary 'Journal of Solid State Chemistry' 1978 23 253 263 JSSCBI
loop_
_publ_author_name
'Hodeau, J.L.'
'Marezio, M.'
_cell_length_a 5.509(1)
_cell_length_b 7.008(2)
_cell_length_c 12.256(2)
_cell_angle_alpha 95.10(2)
_cell_angle_beta 95.17(1)
_cell_angle_gamma 109.25(2)
_cell_volume 441.34
_cell_formula_units_Z 4
_symmetry_space_group_name_H-M 'A -1'
_symmetry_Int_Tables_number 2
_refine_ls_R_factor_all 0.023
loop_
_symmetry_equiv_pos_site_id
_symmetry_equiv_pos_as_xyz
1 '-x, -y, -z'
2 'x, y, z'
3 '-x, -y+1/2, -z+1/2'
4 'x, y+1/2, z+1/2'
loop_
_atom_type_symbol
_atom_type_oxidation_number
V3+ 3.5
O2- -2
loop_
_atom_site_label
_atom_site_type_symbol
_atom_site_symmetry_multiplicity
_atom_site_Wyckoff_symbol
_atom_site_fract_x
_atom_site_fract_y
_atom_site_fract_z
_atom_site_B_iso_or_equiv
_atom_site_occupancy
_atom_site_attached_hydrogens
V1 V3+ 4 i 0.2146(3) 0.1468(3) 0.0629(1) . 1. 0
V2 V3+ 4 i 0.2230(4) 0.6550(3) 0.0671(2) . 1. 0
V3 V3+ 4 i 0.6822(2) 0.4403(2) 0.1996(1) . 1. 0
V4 V3+ 4 i 0.6874(2) 0.9419(2) 0.2018(1) . 1. 0
O1 O2- 4 i 0.1005(5) 0.8576(4) 0.0105(2) . 1. 0
O2 O2- 4 i 0.5864(6) 0.7958(5) 0.0545(2) . 1. 0
O3 O2- 4 i 0.8549(6) 0.4932(4) 0.0836(2) . 1. 0
O4 O2- 4 i 0.3271(5) 0.4367(4) 0.1373(2) . 1. 0
O5 O2- 4 i 0.5257(5) 0.1433(4) 0.1642(2) . 1. 0
O6 O2- 4 i 0.0309(6) 0.0641(4) 0.1982(2) . 1. 0
O7 O2- 4 i 0.2955(5) 0.7922(4) 0.2243(2) . 1. 0
loop_
_atom_site_aniso_label
_atom_site_aniso_type_symbol
_atom_site_aniso_beta_11
_atom_site_aniso_beta_22
_atom_site_aniso_beta_33
_atom_site_aniso_beta_12
_atom_site_aniso_beta_13
_atom_site_aniso_beta_23
V1 V3+ 0.0046(3) 0.0025(2) 0.00062(6) 0.0012(2) 0.0001(1) 0.00010(7)
V2 V3+ 0.0045(2) 0.0023(2) 0.00085(5) 0.0014(2) 0.00025(8) 0.00016(7)
V3 V3+ 0.0036(3) 0.0025(2) 0.00073(5) 0.0009(2) 0.0004(1) 0.00017(7)
V4 V3+ 0.0044(3) 0.0025(2) 0.00086(5) 0.0016(2) 0.00047(9) 0.00035(7)
O1 O2- 0.0061(7) 0.0034(5) 0.0012(1) 0.0022(5) 0.0000(3) 0.0005(2)
O2 O2- 0.0053(8) 0.0041(5) 0.0009(1) 0.0008(5) 0.0003(3) 0.0004(2)
O3 O2- 0.0053(7) 0.0033(5) 0.0009(1) 0.0010(5) 0.0007(3) 0.0005(2)
O4 O2- 0.0056(7) 0.0018(4) 0.0009(1) 0.0015(4) 0.0001(2) 0.0001(2)
O5 O2- 0.0041(7) 0.0021(5) 0.0010(1) 0.0010(4) 0.0002(2) 0.0004(2)
O6 O2- 0.0050(7) 0.0033(5) 0.0010(1) 0.0014(5) 0.0001(3) 0.0001(2)
O7 O2- 0.0049(7) 0.0022(4) 0.0008(1) 0.0012(4) 0.0001(3) 0.0001(2)
#End of TTdata_2211-ICSD