
#(C) 2018 by FIZ Karlsruhe - Leibniz Institute for Information Infrastructure.  All rights reserved.
data_77114-ICSD
_database_code_ICSD 77114
_audit_creation_date 2003-04-01
_chemical_name_systematic 'Molybdenum stannide (1/2)'
_chemical_formula_structural 'Mo Sn2'
_chemical_formula_sum 'Mo1 Sn2'
_exptl_crystal_density_diffrn 8.98
_publ_section_title 'The molybdenum stannide Mo Sn2'
loop_
_citation_id
_citation_journal_full
_citation_year
_citation_journal_volume
_citation_page_first
_citation_page_last
_citation_journal_id_ASTM
primary 'Zeitschrift fuer Anorganische und Allgemeine Chemie (1950) (DE)' 1994
620 467 470 ZAACAB
loop_
_publ_author_name
'Woelpl, T.'
'Jeitschko, W.'
_cell_length_a 5.488(1)
_cell_length_b 5.488(1)
_cell_length_c 14.171(2)
_cell_angle_alpha 90.
_cell_angle_beta 90.
_cell_angle_gamma 120.
_cell_volume 369.62
_cell_formula_units_Z 6
_symmetry_space_group_name_H-M 'P 62 2 2'
_symmetry_Int_Tables_number 180
_refine_ls_R_factor_all 0.036
loop_
_symmetry_equiv_pos_site_id
_symmetry_equiv_pos_as_xyz
1 'x, x-y, -z+1/3'
2 '-x+y, y, -z'
3 '-y, -x, -z+2/3'
4 '-x, -x+y, -z+1/3'
5 'x-y, -y, -z'
6 'y, x, -z+2/3'
7 'x-y, x, z+1/3'
8 'y, -x+y, z+2/3'
9 '-x, -y, z'
10 '-x+y, -x, z+1/3'
11 '-y, x-y, z+2/3'
12 'x, y, z'
loop_
_atom_type_symbol
_atom_type_oxidation_number
Mo0+ 0
Sn0+ 0
loop_
_atom_site_label
_atom_site_type_symbol
_atom_site_symmetry_multiplicity
_atom_site_Wyckoff_symbol
_atom_site_fract_x
_atom_site_fract_y
_atom_site_fract_z
_atom_site_B_iso_or_equiv
_atom_site_occupancy
_atom_site_attached_hydrogens
Mo1 Mo0+ 3 a 0 0 0 . 1. 0
Mo2 Mo0+ 3 c 0.5 0 0 . 1. 0
Sn1 Sn0+ 6 f 0.5 0 0.3969(1) . 1. 0
Sn2 Sn0+ 6 j 0.1680(4) 0.336 0.5 . 1. 0
loop_
_atom_site_aniso_label
_atom_site_aniso_type_symbol
_atom_site_aniso_B_11
_atom_site_aniso_B_22
_atom_site_aniso_B_33
_atom_site_aniso_B_12
_atom_site_aniso_B_13
_atom_site_aniso_B_23
Mo1 Mo0+ 0.41(6) 0.16(9) 0.17(9) 0.08 0 0
Mo2 Mo0+ 0.23(5) 0.81 0.15(7) 0.405 0 0
Sn1 Sn0+ 0.49(3) 0.68(3) 0.43(4) 0.22(1) 0 0
Sn2 Sn0+ 0.59(3) 0.52(5) 0.23(4) 0.26 0.04(3) 0
#End of TTdata_77114-ICSD