
#(C) 2018 by FIZ Karlsruhe - Leibniz Institute for Information Infrastructure.  All rights reserved.
data_253590-ICSD
_database_code_ICSD 253590
_audit_creation_date 2017-08-01
_chemical_name_systematic 'beta-Xenon trioxide'
_chemical_formula_structural 'Xe O3'
_chemical_formula_sum 'O3 Xe1'
_exptl_crystal_density_diffrn 4.33
_cell_measurement_temperature 100.
_publ_section_title 'Solid-state structures of XeO3'
loop_
_citation_id
_citation_journal_full
_citation_year
_citation_journal_volume
_citation_page_first
_citation_page_last
_citation_journal_id_ASTM
primary 'Inorganic Chemistry' 2016 55 12975 12981 INOCAJ
loop_
_publ_author_name
'Goettel, James T.'
'Schrobilgen, Gary J.'
_cell_length_a 4.15170(12)
_cell_length_b 4.15170(12)
_cell_length_c 4.15170(12)
_cell_angle_alpha 80.1860(13)
_cell_angle_beta 80.1860(13)
_cell_angle_gamma 80.1860(13)
_cell_volume 68.74
_cell_formula_units_Z 1
_symmetry_space_group_name_H-M 'R 3 R'
_symmetry_Int_Tables_number 146
_refine_ls_R_factor_all 0.0254
loop_
_symmetry_equiv_pos_site_id
_symmetry_equiv_pos_as_xyz
1 'z, x, y'
2 'y, z, x'
3 'x, y, z'
loop_
_atom_type_symbol
_atom_type_oxidation_number
Xe6+ 6
O2- -2
loop_
_atom_site_label
_atom_site_type_symbol
_atom_site_symmetry_multiplicity
_atom_site_Wyckoff_symbol
_atom_site_fract_x
_atom_site_fract_y
_atom_site_fract_z
_atom_site_B_iso_or_equiv
_atom_site_occupancy
_atom_site_attached_hydrogens
Xe1 Xe6+ 1 a 0.6242(4) 0.6242(4) 0.6242(4) 0.00652(4) 1 0
O1 O2- 3 b 0.8305(9) 0.5345(10) 0.2336(9) 0.0131(4) 1 0
loop_
_atom_site_aniso_label
_atom_site_aniso_type_symbol
_atom_site_aniso_U_11
_atom_site_aniso_U_22
_atom_site_aniso_U_33
_atom_site_aniso_U_12
_atom_site_aniso_U_13
_atom_site_aniso_U_23
Xe1 Xe6+ 0.00665(4) 0.00665(4) 0.00665(4) -0.00132(2) -0.00132(2) -0.00132(2)
O1 O2- 0.0121(10) 0.0184(13) 0.0085(8) -0.0007(9) -0.0004(7) -0.0038(8)
#End of TTdata_253590-ICSD