
#(C) 2018 by FIZ Karlsruhe - Leibniz Institute for Information Infrastructure.  All rights reserved.
data_240998-ICSD
_database_code_ICSD 240998
_audit_creation_date 2008-08-01
_chemical_name_systematic 'Boric acid'
_chemical_formula_structural 'H3 B O3'
_chemical_formula_sum 'H3 B1 O3'
_exptl_crystal_density_diffrn 1.49
_cell_measurement_temperature 297.
_publ_section_title
'Rhombohedral boron subnitride, B13 N2, by X-ray powder diffraction'
loop_
_citation_id
_citation_journal_full
_citation_year
_citation_journal_volume
_citation_page_first
_citation_page_last
_citation_journal_id_ASTM
primary 'Acta Crystallographica, Section C: Crystal Structure Communications'
2007 63 i80 i82 ACSCEE
loop_
_publ_author_name
'Kurakevych, O.O.'
'Solozhenko, V.L.'
_cell_length_a 7.0453
_cell_length_b 7.0453
_cell_length_c 9.600(10)
_cell_angle_alpha 90.
_cell_angle_beta 90.
_cell_angle_gamma 120.
_cell_volume 412.67
_cell_formula_units_Z 6
_symmetry_space_group_name_H-M 'P 32'
_symmetry_Int_Tables_number 145
_refine_ls_R_factor_all 0.1
loop_
_symmetry_equiv_pos_site_id
_symmetry_equiv_pos_as_xyz
1 '-x+y, -x, z+1/3'
2 '-y, x-y, z+2/3'
3 'x, y, z'
loop_
_atom_type_symbol
_atom_type_oxidation_number
B0+ 0
O0+ 0
H0+ 0
loop_
_atom_site_label
_atom_site_type_symbol
_atom_site_symmetry_multiplicity
_atom_site_Wyckoff_symbol
_atom_site_fract_x
_atom_site_fract_y
_atom_site_fract_z
_atom_site_B_iso_or_equiv
_atom_site_occupancy
_atom_site_attached_hydrogens
B1 B0+ 3 a 0.1837 0.6403 0.2849 0.025 1. 0
B2 B0+ 3 a 0.518 0.3069 0.2964 0.025 1. 0
O1 O0+ 3 a 0.0621 0.7393 0.2805 0.025 1. 0
O2 O0+ 3 a 0.0864 0.4195 0.2808 0.025 1. 0
O3 O0+ 3 a 0.409 0.765 0.2869 0.025 1. 0
O4 O0+ 3 a 0.6437 0.2103 0.2929 0.025 1. 0
O5 O0+ 3 a 0.295 0.1832 0.2998 0.025 1. 0
O6 O0+ 3 a 0.6136 0.5294 0.2904 0.025 1. 0
#End of TTdata_240998-ICSD