
#(C) 2017 by FIZ Karlsruhe - Leibniz Institute for Information Infrastructure.  All rights reserved.
data_42678-ICSD
_database_code_ICSD 42678
_audit_creation_date 2002-04-01
_audit_update_record 2013-02-01
_chemical_name_systematic 'Antimony - HP'
_chemical_formula_structural Sb
_chemical_formula_sum Sb1
_chemical_name_structure_type Sb(mP4)
_exptl_crystal_density_diffrn 8.55
_cell_measurement_pressure 14000000.
_publ_section_title

;
Investigation ot the crystal structure of the antimony and bismuth high
pressure phases
;
loop_
_citation_id
_citation_journal_full
_citation_year
_citation_journal_volume
_citation_page_first
_citation_page_last
_citation_journal_id_ASTM
primary 'Zhurnal Eksperimental'noi i Teoreticheskoi Fiziki' 1970 58 486 493
ZETFA7
loop_
_publ_author_name
'Kabalkina, S.S.'
'Kolobyanina, T.N.'
'Vereshchagin, L.F.'
_cell_length_a 5.56
_cell_length_b 4.04
_cell_length_c 4.22(1)
_cell_angle_alpha 90.
_cell_angle_beta 86.
_cell_angle_gamma 90.
_cell_volume 94.56
_cell_formula_units_Z 4
_symmetry_space_group_name_H-M 'P 1 21/m 1'
_symmetry_Int_Tables_number 11
_refine_ls_R_factor_all 0.1
loop_
_symmetry_equiv_pos_site_id
_symmetry_equiv_pos_as_xyz
1 'x, -y+1/2, z'
2 '-x, -y, -z'
3 '-x, y+1/2, -z'
4 'x, y, z'
loop_
_atom_type_symbol
_atom_type_oxidation_number
Sb0+ 0
loop_
_atom_site_label
_atom_site_type_symbol
_atom_site_symmetry_multiplicity
_atom_site_Wyckoff_symbol
_atom_site_fract_x
_atom_site_fract_y
_atom_site_fract_z
_atom_site_B_iso_or_equiv
_atom_site_occupancy
_atom_site_attached_hydrogens
Sb1 Sb0+ 2 e 0.74 0.25 0.08 . 1. 0
Sb2 Sb0+ 2 e 0.34 0.25 0.4 . 1. 0
#End of TTdata_42678-ICSD