
#(C) 2018 by FIZ Karlsruhe - Leibniz Institute for Information Infrastructure.  All rights reserved.
data_410107-ICSD
_database_code_ICSD 410107
_audit_creation_date 1999-11-30
_chemical_name_systematic 'Bromotriindium(I) hexabromodiindate(II)'
_chemical_formula_structural 'Br7 In5'
_chemical_formula_sum 'Br7 In5'
_exptl_crystal_density_diffrn 4.71
_publ_section_title 'Zur Polymorphie von In5 Br7'
loop_
_citation_id
_citation_journal_full
_citation_year
_citation_journal_volume
_citation_page_first
_citation_page_last
_citation_journal_id_ASTM
primary 'Zeitschrift fuer Anorganische und Allgemeine Chemie (1950) (DE)' 1999
625 577 585 ZAACAB
loop_
_publ_author_name
'Ruck, M.'
'Baernighausen, H.'
_cell_length_a 13.141(4)
_cell_length_b 13.141(4)
_cell_length_c 37.010(50)
_cell_angle_alpha 90.
_cell_angle_beta 90.
_cell_angle_gamma 90.
_cell_volume 6391.1
_cell_formula_units_Z 16
_symmetry_space_group_name_H-M 'P 41 21 2'
_symmetry_Int_Tables_number 92
_refine_ls_R_factor_all 0.1037
loop_
_symmetry_equiv_pos_site_id
_symmetry_equiv_pos_as_xyz
1 'x+1/2, -y+1/2, -z+3/4'
2 '-x+1/2, y+1/2, -z+1/4'
3 '-y, -x, -z+1/2'
4 'y, x, -z'
5 'y+1/2, -x+1/2, z+3/4'
6 '-y+1/2, x+1/2, z+1/4'
7 '-x, -y, z+1/2'
8 'x, y, z'
loop_
_atom_type_symbol
_atom_type_oxidation_number
In0+ 0
Br0+ 0
loop_
_atom_site_label
_atom_site_type_symbol
_atom_site_symmetry_multiplicity
_atom_site_Wyckoff_symbol
_atom_site_fract_x
_atom_site_fract_y
_atom_site_fract_z
_atom_site_B_iso_or_equiv
_atom_site_occupancy
_atom_site_attached_hydrogens
In1 In0+ 8 b 0.42085(15) 0.03028(14) 0.30677(6) . 1. 0
In2 In0+ 8 b 0.33252(15) 0.21635(15) 0.30772(6) . 1. 0
In3 In0+ 8 b 0.28175(14) 0.08246(15) 0.19284(5) . 1. 0
In4 In0+ 8 b 0.46738(14) 0.17131(15) 0.19036(6) . 1. 0
In5 In0+ 8 b 0.00894(17) 0.26269(18) 0.25203(6) . 1. 0
In6 In0+ 8 b 0.0415(2) -.00619(18) 0.33126(7) . 1. 0
In7 In0+ 8 b -.30191(19) 0.26533(17) 0.32493(6) . 1. 0
In8 In0+ 4 a 0.51147(16) 0.48853(16) 0.25 . 1. 0
In9 In0+ 4 a 0.24068(17) 0.75932(17) 0.25 . 1. 0
In10 In0+ 8 b 0.54748(19) 0.76300(17) 0.32512(7) . 1. 0
In11 In0+ 8 b 0.2080(2) 0.49444(18) 0.33274(7) . 1. 0
Br1 Br0+ 8 b 0.4542(2) -.0738(2) 0.24807(8) . 1. 0
Br2 Br0+ 8 b 0.3299(3) -.1118(3) 0.34188(10) . 1. 0
Br3 Br0+ 8 b 0.6048(2) 0.0238(2) 0.33158(8) . 1. 0
Br4 Br0+ 8 b 0.2921(2) 0.3258(2) 0.25188(8) . 1. 0
Br5 Br0+ 8 b 0.1534(2) 0.2233(3) 0.33676(8) . 1. 0
Br6 Br0+ 8 b 0.4260(3) 0.3520(3) 0.34437(10) . 1. 0
Br7 Br0+ 8 b 0.1737(2) 0.0442(2) 0.24911(8) . 1. 0
Br8 Br0+ 8 b 0.2751(3) -.0960(2) 0.16327(9) . 1. 0
Br9 Br0+ 8 b 0.1460(3) 0.1751(3) 0.15583(10) . 1. 0
Br10 Br0+ 8 b 0.5725(2) 0.2066(2) 0.24863(8) . 1. 0
Br11 Br0+ 8 b 0.6100(3) 0.0839(3) 0.15634(9) . 1. 0
Br12 Br0+ 8 b 0.4721(3) 0.3564(2) 0.16635(8) . 1. 0
Br13 Br0+ 8 b -.1277(2) 0.1222(2) 0.29977(14) . 1. 0
Br14 Br0+ 8 b 0.3729(2) 0.6211(2) 0.30034(13) . 1. 0
loop_
_atom_site_aniso_label
_atom_site_aniso_type_symbol
_atom_site_aniso_U_11
_atom_site_aniso_U_22
_atom_site_aniso_U_33
_atom_site_aniso_U_12
_atom_site_aniso_U_13
_atom_site_aniso_U_23
In1 In0+ 0.0131(12) 0.0133(12) 0.0358(13) 0.0003(10) 0.0013(10) 0.0006(10)
In2 In0+ 0.0146(12) 0.0111(12) 0.0300(12) 0.0015(10) -.0002(10) 0.0008(10)
In3 In0+ 0.0116(12) 0.0160(12) 0.0274(12) -.003(1) 0.0018(9) -.0005(10)
In4 In0+ 0.0121(12) 0.0152(12) 0.0333(13) -.0023(10) 0.0013(10) 0.0004(10)
In5 In0+ 0.0256(13) 0.0305(14) 0.0638(18) -.0063(14) -.0098(14) 0.0114(14)
In6 In0+ 0.0524(17) 0.0266(14) 0.0541(17) -.0084(13) -.0149(14) 0.0067(12)
In7 In0+ 0.0451(16) 0.0249(13) 0.0390(14) -.0097(12) 0.0004(12) -.0043(12)
In8 In0+ 0.0262(12) 0.0262(12) 0.058(2) 0.0000(18) -.0074(13) -.0074(13)
In9 In0+ 0.0288(13) 0.0288(13) 0.067(3) 0.0070(18) 0.0096(14) 0.0096(14)
In10 In0+ 0.0461(16) 0.0286(14) 0.0396(14) 0.0145(12) -.0016(12) -.0055(12)
In11 In0+ 0.0515(16) 0.0299(14) 0.0513(16) 0.0072(13) 0.0131(14) 0.0064(12)
Br1 Br0+ 0.0199(16) 0.0221(17) 0.0326(18) 0.0002(13) -.0010(15) -.0049(15)
Br2 Br0+ 0.024(2) 0.019(2) 0.050(2) -.0035(18) 0.0119(17) -.0012(16)
Br3 Br0+ 0.0149(18) 0.0195(17) 0.0363(19) 0.0014(15) -.0002(15) 0.0033(14)
Br4 Br0+ 0.0193(17) 0.0279(18) 0.0339(19) 0.0028(15) 0.0052(16) 0.0049(15)
Br5 Br0+ 0.0116(19) 0.0268(19) 0.0327(19) 0.0005(16) 0.0075(15) -.0013(15)
Br6 Br0+ 0.040(2) 0.023(2) 0.041(2) -.0074(19) -.0128(17) -.0034(17)
Br7 Br0+ 0.0207(17) 0.0273(18) 0.0266(17) -.0052(14) 0.0111(15) 0.0017(15)
Br8 Br0+ 0.0236(18) 0.025(2) 0.033(2) -.0048(17) -.0024(15) -.0077(16)
Br9 Br0+ 0.020(2) 0.030(2) 0.058(2) 0.0072(18) -.0021(18) 0.0217(17)
Br10 Br0+ 0.0211(17) 0.0253(17) 0.0293(17) 0.0003(14) -.0078(15) -.0004(15)
Br11 Br0+ 0.018(2) 0.030(2) 0.039(2) 0.0110(19) -.0018(15) -.0112(16)
Br12 Br0+ 0.0255(19) 0.0227(19) 0.0252(18) 0.0027(16) 0.0014(14) 0.0031(15)
Br13 Br0+ 0.026(3) 0.020(3) 0.048(3) 0.0014(13) -.0057(15) 0.0002(14)
Br14 Br0+ 0.027(3) 0.020(3) 0.038(3) 0.0059(13) 0.0075(14) -.0016(14)
#End of TTdata_410107-ICSD