
#(C) 2018 by FIZ Karlsruhe - Leibniz Institute for Information Infrastructure.  All rights reserved.
data_194241-ICSD
_database_code_ICSD 194241
_audit_creation_date 2015-08-01
_chemical_name_systematic 'Sodium silicon (7.5/34)'
_chemical_formula_structural 'Na7.5 Si34'
_chemical_formula_sum 'Na7.5 Si34'
_exptl_crystal_density_diffrn 2.32
_cell_measurement_temperature 90.
_publ_section_title

;
High-pressure synthesis and structural characterization of the type II
clathrate compound Na30.5 Si136 encapsulating two sodium atoms in the same
silicon polyhedral cages
;
loop_
_citation_id
_citation_journal_full
_citation_year
_citation_journal_volume
_citation_page_first
_citation_page_last
_citation_journal_id_ASTM
primary 'Journal of the American Chemical Society' 2014 136 7717 7725 JACSAT
loop_
_publ_author_name
'Yamanaka, Shoji'
'Komatsu, Masaya'
'Tanaka, Masashi'
'Sawa, Hiroshi'
'Inumaru, Kei'
_cell_length_a 14.7679(3)
_cell_length_b 14.7679(3)
_cell_length_c 14.7679(3)
_cell_angle_alpha 90
_cell_angle_beta 90
_cell_angle_gamma 90
_cell_volume 3220.74
_cell_formula_units_Z 4
_symmetry_space_group_name_H-M 'P 21 3'
_symmetry_Int_Tables_number 198
_refine_ls_R_factor_all 0.0345
loop_
_symmetry_equiv_pos_site_id
_symmetry_equiv_pos_as_xyz
1 '-z+1/2, -x, y+1/2'
2 '-y+1/2, -z, x+1/2'
3 '-x+1/2, -y, z+1/2'
4 '-z, x+1/2, -y+1/2'
5 '-y, z+1/2, -x+1/2'
6 '-x, y+1/2, -z+1/2'
7 'z+1/2, -x+1/2, -y'
8 'y+1/2, -z+1/2, -x'
9 'x+1/2, -y+1/2, -z'
10 'z, x, y'
11 'y, z, x'
12 'x, y, z'
loop_
_atom_type_symbol
_atom_type_oxidation_number
Si0+ 0
Na0+ 0
loop_
_atom_site_label
_atom_site_type_symbol
_atom_site_symmetry_multiplicity
_atom_site_Wyckoff_symbol
_atom_site_fract_x
_atom_site_fract_y
_atom_site_fract_z
_atom_site_B_iso_or_equiv
_atom_site_occupancy
_atom_site_attached_hydrogens
Si1 Si0+ 4 a -0.24752(9) 0.24752(9) -0.25248(9) 0.00727(19) 1 0
Si2 Si0+ 4 a 0.00208(10) -0.00208(10) -0.50208(10) 0.00727(19) 1 0
Si3 Si0+ 4 a -0.33862(9) 0.33862(9) -0.16138(9) 0.00743(13) 1 0
Si4 Si0+ 12 b -0.15774(11) 0.15391(10) -0.15869(10) 0.00743(13) 1 0
Si5 Si0+ 4 a 0.09513(10) -0.09513(10) -0.59513(10) 0.00743(13) 1 0
Si6 Si0+ 12 b 0.09408(10) 0.08940(10) -0.40693(10) 0.00743(13) 1 0
Si7 Si0+ 12 b 0.31013(11) 0.00701(10) -0.69220(11) 0.00692(11) 1 0
Si8 Si0+ 12 b -0.30509(11) 0.49255(10) -0.19465(10) 0.00692(11) 1 0
Si9 Si0+ 12 b -0.31046(10) 0.69019(11) 0.00522(10) 0.00692(11) 1 0
Si10 Si0+ 12 b -0.19531(11) 0.00267(10) -0.19678(10) 0.00692(11) 1 0
Si11 Si0+ 12 b -0.24808(9) 0.55404(10) -0.05806(11) 0.00692(11) 1 0
Si12 Si0+ 12 b 0.05426(11) 0.05527(10) -0.25336(10) 0.00692(11) 1 0
Si13 Si0+ 12 b 0.24853(10) -0.05883(10) -0.55986(10) 0.00692(11) 1 0
Si14 Si0+ 12 b -0.05922(10) -0.06236(10) -0.25632(10) 0.00692(11) 1 0
Na1 Na0+ 4 a -0.12335(14) 0.12335(14) -0.37665(14) 0.0107(11) 1 0
Na2 Na0+ 12 b -0.12349(18) 0.37182(13) -0.12421(18) 0.0113(4) 1 0
Na3 Na0+ 4 a -0.5025(16) 0.5025(16) 0.0025(16) 0.109(15) 0.36(3) 0
Na4 Na0+ 4 a -0.0571(2) -0.0571(2) -0.0571(2) 0.0159(16) 0.740(17) 0
Na5 Na0+ 4 a -0.4499(2) 0.4499(2) -0.0501(2) 0.024(2) 0.66(2) 0
Na6 Na0+ 4 a -0.2532(9) -0.2532(9) -0.2532(9) 0.043(7) 0.28(2) 0
Na7 Na0+ 12 b -0.3020(5) 0.6928(5) -0.1929(5) 0.011(2) 0.254(9) 0
Na8 Na0+ 12 b 0.1953(4) 0.1950(4) -0.2912(5) 0.010(2) 0.256(9) 0
loop_
_atom_site_aniso_label
_atom_site_aniso_type_symbol
_atom_site_aniso_U_11
_atom_site_aniso_U_22
_atom_site_aniso_U_33
_atom_site_aniso_U_12
_atom_site_aniso_U_13
_atom_site_aniso_U_23
Si1 Si0+ 0.00727(19) 0.00727(19) 0.00727(19) 0.0026(5) 0.0026(5) -0.0026(5)
Si2 Si0+ 0.00727(19) 0.00727(19) 0.00727(19) 0.0026(5) 0.0026(5) -0.0026(5)
Si3 Si0+ 0.00743(13) 0.00743(13) 0.00743(13) 0.0016(2) 0.0016(2) -0.0016(2)
Si4 Si0+ 0.00743(13) 0.00743(13) 0.00743(13) 0.0016(2) 0.0016(2) -0.0016(2)
Si5 Si0+ 0.00743(13) 0.00743(13) 0.00743(13) 0.0016(2) 0.0016(2) -0.0016(2)
Si6 Si0+ 0.00743(13) 0.00743(13) 0.00743(13) 0.0016(2) 0.0016(2) -0.0016(2)
Si7 Si0+ 0.0060(2) 0.0069(2) 0.0079(3) 0.00100(13) 0.00078(14) -0.00062(16)
Si8 Si0+ 0.0060(2) 0.0069(2) 0.0079(3) 0.00100(13) 0.00078(14) -0.00062(16)
Si9 Si0+ 0.0060(2) 0.0069(2) 0.0079(3) 0.00100(13) 0.00078(14) -0.00062(16)
Si10 Si0+ 0.0060(2) 0.0069(2) 0.0079(3) 0.00100(13) 0.00078(14) -0.00062(16)
Si11 Si0+ 0.0060(2) 0.0069(2) 0.0079(3) 0.00100(13) 0.00078(14) -0.00062(16)
Si12 Si0+ 0.0060(2) 0.0069(2) 0.0079(3) 0.00100(13) 0.00078(14) -0.00062(16)
Si13 Si0+ 0.0060(2) 0.0069(2) 0.0079(3) 0.00100(13) 0.00078(14) -0.00062(16)
Si14 Si0+ 0.0060(2) 0.0069(2) 0.0079(3) 0.00100(13) 0.00078(14) -0.00062(16)
Na1 Na0+ 0.0107(11) 0.0107(11) 0.0107(11) 0.0004(10) 0.0004(10) -0.0004(10)
Na2 Na0+ 0.0126(10) 0.0093(14) 0.0120(10) -0.0007(6) 0.0007(10) -0.0015(7)
Na3 Na0+ 0.109(15) 0.109(15) 0.109(15) -0.005(9) -0.005(9) 0.005(9)
Na4 Na0+ 0.0159(16) 0.0159(16) 0.0159(16) -0.0066(9) -0.0066(9) -0.0066(9)
Na5 Na0+ 0.024(2) 0.024(2) 0.024(2) 0.0107(11) 0.0107(11) -0.0107(11)
#End of TTdata_194241-ICSD