
#(C) 2018 by FIZ Karlsruhe - Leibniz Institute for Information Infrastructure.  All rights reserved.
data_109215-ICSD
_database_code_ICSD 109215
_audit_creation_date 2007-04-01
_audit_update_record 2009-02-01
_chemical_name_systematic 'Indium selenide - alpha'
_chemical_formula_structural 'In2 Se3'
_chemical_formula_sum 'In2 Se3'
_exptl_crystal_density_diffrn 5.81
_publ_section_title 'Crystal structure of the low-temperature form of In2 Se3'
loop_
_citation_id
_citation_journal_full
_citation_year
_citation_journal_volume
_citation_page_first
_citation_page_last
_citation_journal_id_ASTM
primary Kristallografiya 1961 6 200 203 KRISAJ
loop_
_publ_author_name
'Semiletov, S.A.'
_cell_length_a 16.
_cell_length_b 16.
_cell_length_c 19.24
_cell_angle_alpha 90.
_cell_angle_beta 90.
_cell_angle_gamma 120.
_cell_volume 4265.56
_cell_formula_units_Z 32
_symmetry_space_group_name_H-M 'P 63'
_symmetry_Int_Tables_number 173
loop_
_symmetry_equiv_pos_site_id
_symmetry_equiv_pos_as_xyz
1 'x-y, x, z+1/2'
2 'y, -x+y, z+1/2'
3 '-x, -y, z+1/2'
4 '-x+y, -x, z'
5 '-y, x-y, z'
6 'x, y, z'
loop_
_atom_type_symbol
_atom_type_oxidation_number
Se2- -2
In3+ 3
loop_
_atom_site_label
_atom_site_type_symbol
_atom_site_symmetry_multiplicity
_atom_site_Wyckoff_symbol
_atom_site_fract_x
_atom_site_fract_y
_atom_site_fract_z
_atom_site_B_iso_or_equiv
_atom_site_occupancy
_atom_site_attached_hydrogens
Se1 Se2- 6 c 0.0833 0.1666 0 1.76 1. 0
Se2 Se2- 6 c 0.3334 0.1667 0 1.56 1. 0
Se3 Se2- 6 c 0.5833 0.1667 0 1.3 1. 0
Se4 Se2- 6 c 0.0833 0.4167 0 1.3 1. 0
Se5 Se2- 6 c 0.0833 0.6667 0 1.3 1. 0
Se6 Se2- 6 c 0.0833 0.1666 0.32 1.3 1. 0
Se7 Se2- 6 c 0.3334 0.1667 0.32 1.3 1. 0
Se8 Se2- 6 c 0.5833 0.1667 0.32 1.3 1. 0
Se9 Se2- 6 c 0.0833 0.4167 0.32 1.3 1. 0
Se10 Se2- 6 c 0.0833 0.6667 0.32 1.3 1. 0
Se11 Se2- 6 c 0.0833 0.1666 0.68 1.3 1. 0
Se12 Se2- 6 c 0.3334 0.1667 0.68 1.3 1. 0
Se13 Se2- 6 c 0.5833 0.1667 0.68 1.3 1. 0
Se14 Se2- 6 c 0.0833 0.4167 0.68 1.3 1. 0
Se15 Se2- 6 c 0.0833 0.6667 0.68 1.3 1. 0
Se16 Se2- 2 b 0.3333 0.6667 0 1.3 1. 0
Se17 Se2- 2 b 0.3333 0.6667 0.32 1.3 1. 0
Se18 Se2- 2 b 0.3333 0.6667 0.68 1.3 1. 0
In1 In3+ 6 c 0.0833 0.1666 0.13 1.3 1. 0
In2 In3+ 6 c 0.3334 0.1667 0.13 1.3 1. 0
In3 In3+ 6 c 0.5833 0.1667 0.13 1.3 1. 0
In4 In3+ 6 c 0.0833 0.4167 0.13 1.3 1. 0
In5 In3+ 6 c 0.0833 0.6667 0.13 1.3 1. 0
In6 In3+ 6 c 0.0833 0.1666 0.45 1.3 1. 0
In7 In3+ 6 c 0.3334 0.1667 0.45 1.3 1. 0
In8 In3+ 6 c 0.5833 0.1667 0.45 1.3 1. 0
In9 In3+ 6 c 0.0833 0.4167 0.45 1.3 1. 0
In10 In3+ 6 c 0.0833 0.6667 0.45 1.3 1. 0
In11 In3+ 2 a 0 0 0.09 1.3 1. 0
In12 In3+ 2 a 0 0 0.41 1.3 1. 0
loop_
_atom_site_aniso_label
_atom_site_aniso_type_symbol
_atom_site_aniso_beta_11
_atom_site_aniso_beta_22
_atom_site_aniso_beta_33
_atom_site_aniso_beta_12
_atom_site_aniso_beta_13
_atom_site_aniso_beta_23
Se1 Se2- 0.0082 0.0092 0.0018 0.0036 0.0007 0.0015
Se2 Se2- 0.0107 0.0105 0.0012 0.0066 -.0008 -.0011
Se3 Se2- 0.007 0.007 0.0009 0.0036 -.0008 0.0006
Se4 Se2- 0.007 0.007 0.0009 0.0036 -.0008 0.0006
Se5 Se2- 0.007 0.007 0.0009 0.0036 -.0008 0.0006
Se6 Se2- 0.007 0.007 0.0009 0.0036 -.0008 0.0006
Se7 Se2- 0.007 0.007 0.0009 0.0036 -.0008 0.0006
Se8 Se2- 0.007 0.007 0.0009 0.0036 -.0008 0.0006
Se9 Se2- 0.007 0.007 0.0009 0.0036 -.0008 0.0006
Se10 Se2- 0.007 0.007 0.0009 0.0036 -.0008 0.0006
Se11 Se2- 0.007 0.007 0.0009 0.0036 -.0008 0.0006
#End of TTdata_109215-ICSD