
#(C) 2017 by FIZ Karlsruhe - Leibniz Institute for Information Infrastructure.  All rights reserved.
data_56473-ICSD
_database_code_ICSD 56473
_audit_creation_date 2003-04-01
_audit_update_record 2015-02-01
_chemical_name_systematic 'Silicon oxide - HT, average structure'
_chemical_formula_structural 'Si O2'
_chemical_formula_sum 'O2 Si1'
_chemical_name_structure_type SiO2(mP12)
_chemical_name_mineral Tridymite
_exptl_crystal_density_diffrn 2.21
_cell_measurement_temperature 433.
_publ_section_title 'Kristallstruktur von moduliertem Tridymite bei 160 C'
loop_
_citation_id
_citation_journal_full
_citation_year
_citation_journal_volume
_citation_page_first
_citation_page_last
_citation_journal_id_ASTM
primary 'Zeitschrift fuer Kristallographie, Supplement Issue' 1999 16 83 83
ZKSUP2
loop_
_publ_author_name
'Graetsch, H.'
_cell_length_a 8.7535(7)
_cell_length_b 5.0121(4)
_cell_length_c 8.2141(7)
_cell_angle_alpha 90.
_cell_angle_beta 90.
_cell_angle_gamma 90.2199(13)
_cell_volume 360.38
_cell_formula_units_Z 8
_symmetry_space_group_name_H-M 'C 1 1 21'
_symmetry_Int_Tables_number 4
_refine_ls_R_factor_all 0.023
loop_
_symmetry_equiv_pos_site_id
_symmetry_equiv_pos_as_xyz
1 '-x, -y, z+1/2'
2 'x, y, z'
3 '-x+1/2, -y+1/2, z+1/2'
4 'x+1/2, y+1/2, z'
loop_
_atom_type_symbol
_atom_type_oxidation_number
Si4+ 4
O2- -2
loop_
_atom_site_label
_atom_site_type_symbol
_atom_site_symmetry_multiplicity
_atom_site_Wyckoff_symbol
_atom_site_fract_x
_atom_site_fract_y
_atom_site_fract_z
_atom_site_B_iso_or_equiv
_atom_site_occupancy
_atom_site_attached_hydrogens
Si1 Si4+ 4 a 0.1755(4) 0.5534(4) 0.6845 0.0342(5) 1. 0
Si2 Si4+ 4 a 0.1597(4) 0.4490(4) 0.3086(2) 0.0342(5) 1. 0
O1 O2- 4 a 0.3336(4) 0.0003(7) -.0031(2) 0.088 1. 0
O2 O2- 4 a -.0122(5) 0.4265(8) 0.2853(6) 0.088 1. 0
O3 O2- 4 a 0.2670(6) 0.3305(6) 0.7728(5) 0.088 1. 0
O4 O2- 4 a 0.2410(6) 0.6714(6) 0.2106(5) 0.088 1. 0
#End of TTdata_56473-ICSD