
#(C) 2017 by FIZ Karlsruhe - Leibniz Institute for Information Infrastructure.  All rights reserved.
data_54341-ICSD
_database_code_ICSD 54341
_audit_creation_date 2005-10-01
_audit_update_record 2015-02-01
_chemical_name_systematic 'Manganese neodymium (2/1) - LT'
_chemical_formula_structural 'Mn2 Nd'
_chemical_formula_sum 'Mn2 Nd1'
_exptl_crystal_density_diffrn 7.03
_cell_measurement_temperature 100.
_publ_section_title 'Effects of exchange frustration in Nd Mn2'
loop_
_citation_id
_citation_journal_full
_citation_year
_citation_journal_volume
_citation_page_first
_citation_page_last
_citation_journal_id_ASTM
primary 'Journal of Physics: Condensed Matter' 1992 4 4675 4686 JCOMEL
loop_
_publ_author_name
'Ouladdiaf, B.'
'Ballou, R.'
'Deportes, J.'
'Lemaire, R.'
'Sayetat, F.'
_cell_length_a 5.5770(5)
_cell_length_b 8.9870(5)
_cell_length_c 5.5210(5)
_cell_angle_alpha 90.
_cell_angle_beta 119.80(1)
_cell_angle_gamma 90.
_cell_volume 240.12
_cell_formula_units_Z 4
_symmetry_space_group_name_H-M 'P 1 m 1'
_symmetry_Int_Tables_number 6
_refine_ls_R_factor_all 0.05
loop_
_symmetry_equiv_pos_site_id
_symmetry_equiv_pos_as_xyz
1 'x, -y, z'
2 'x, y, z'
loop_
_atom_type_symbol
_atom_type_oxidation_number
Mn0+ 0
Nd0+ 0
loop_
_atom_site_label
_atom_site_type_symbol
_atom_site_symmetry_multiplicity
_atom_site_Wyckoff_symbol
_atom_site_fract_x
_atom_site_fract_y
_atom_site_fract_z
_atom_site_B_iso_or_equiv
_atom_site_occupancy
_atom_site_attached_hydrogens
Mn1 Mn0+ 1 a 0.1667 0 0.8333 . 1. 0
Mn2 Mn0+ 1 a 0.1667 0 0.3333 . 1. 0
Mn3 Mn0+ 1 a 0.6667 0 0.8333 . 1. 0
Mn4 Mn0+ 1 b 0.3333 0.5 0.1667 . 1. 0
Mn5 Mn0+ 1 b 0.8333 0.5 0.6667 . 1. 0
Mn6 Mn0+ 1 b 0.8333 0.5 0.1667 . 1. 0
Mn7 Mn0+ 2 c 0 0.25 0 . 1. 0
Nd1 Nd0+ 2 c 0.3333 0.3125 0.6667 . 1. 0
Nd2 Nd0+ 2 c 0.6667 0.1875 0.3333 . 1. 0
#End of TTdata_54341-ICSD