
#(C) 2017 by FIZ Karlsruhe - Leibniz Institute for Information Infrastructure.  All rights reserved.
data_15766-ICSD
_database_code_ICSD 15766
_audit_creation_date 1980-01-01
_audit_update_record 1985-04-24
_chemical_name_systematic Cyclo-18-sulfur
_chemical_formula_structural S18
_chemical_formula_sum S18
_exptl_crystal_density_diffrn 2.09
_publ_section_title

;
Darstellung und Kristallstruktur von Cyclooktadekaschwefel S18, und
Cycloikosaschwefel, S20
;
loop_
_citation_id
_citation_journal_full
_citation_year
_citation_journal_volume
_citation_page_first
_citation_page_last
_citation_journal_id_ASTM
primary 'Zeitschrift fuer Anorganische und Allgemeine Chemie (1950) (DE)' 1974
405 153 162 ZAACAB
loop_
_publ_author_name
'Schmidt, M.'
'Wilhelm, E.'
'Debaerdemaeker, T.'
'Hellner, E.'
'Kutoglu, A.'
_cell_length_a 21.152
_cell_length_b 11.441
_cell_length_c 7.581
_cell_angle_alpha 90.
_cell_angle_beta 90.
_cell_angle_gamma 90.
_cell_volume 1834.6
_cell_formula_units_Z 4
_symmetry_space_group_name_H-M 'P 21 21 21'
_symmetry_Int_Tables_number 19
_refine_ls_R_factor_all 0.037
loop_
_symmetry_equiv_pos_site_id
_symmetry_equiv_pos_as_xyz
1 '-x, y+1/2, -z+1/2'
2 'x+1/2, -y+1/2, -z'
3 '-x+1/2, -y, z+1/2'
4 'x, y, z'
loop_
_atom_type_symbol
_atom_type_oxidation_number
S0+ 0
loop_
_atom_site_label
_atom_site_type_symbol
_atom_site_symmetry_multiplicity
_atom_site_Wyckoff_symbol
_atom_site_fract_x
_atom_site_fract_y
_atom_site_fract_z
_atom_site_B_iso_or_equiv
_atom_site_occupancy
_atom_site_attached_hydrogens
S1 S0+ 4 a 0.5141 0.3251 0.7159 . 1. 0
S2 S0+ 4 a 0.5933 0.2592 0.5953 . 1. 0
S3 S0+ 4 a 0.6684 0.3434 0.7108 . 1. 0
S4 S0+ 4 a 0.6944 0.2473 0.929 . 1. 0
S5 S0+ 4 a 0.6408 0.3067 0.1376 . 1. 0
S6 S0+ 4 a 0.6868 0.4495 0.2425 . 1. 0
S7 S0+ 4 a 0.6631 0.5881 0.0835 . 1. 0
S8 S0+ 4 a 0.5799 0.6573 0.176 . 1. 0
S9 S0+ 4 a 0.5097 0.5519 0.0768 . 1. 0
S10 S0+ 4 a 0.4867 0.4399 0.2794 . 1. 0
S11 S0+ 4 a 0.4055 0.506 0.3892 . 1. 0
S12 S0+ 4 a 0.3321 0.4203 0.2673 . 1. 0
S13 S0+ 4 a 0.3055 0.5164 0.0498 . 1. 0
S14 S0+ 4 a 0.3603 0.4591 0.8423 . 1. 0
S15 S0+ 4 a 0.3163 0.3108 0.7464 . 1. 0
S16 S0+ 4 a 0.3413 0.1784 0.9152 . 1. 0
S17 S0+ 4 a 0.4236 0.1065 0.8245 . 1. 0
S18 S0+ 4 a 0.4945 0.2121 0.9192 . 1. 0
loop_
_atom_site_aniso_label
_atom_site_aniso_type_symbol
_atom_site_aniso_B_11
_atom_site_aniso_B_22
_atom_site_aniso_B_33
_atom_site_aniso_B_12
_atom_site_aniso_B_13
_atom_site_aniso_B_23
S1 S0+ 2.3 2.6 3.6 0 0.2 0.5
S2 S0+ 2.3 3.2 2.6 -.3 0.1 -.3
S3 S0+ 2.5 3.7 3.8 -.8 0.1 0.1
S4 S0+ 3. 3.4 3.7 0.7 -.6 -.4
S5 S0+ 3.3 2.9 3.6 0.1 0.2 0.1
S6 S0+ 3. 3.3 3.5 0.6 -.6 -.3
S7 S0+ 2.5 2.9 3. -.3 0.4 0.1
S8 S0+ 2.6 2.4 2.9 0.1 0.2 -.2
S9 S0+ 2.4 4. 2.4 -.2 -.2 0.4
S10 S0+ 2.6 2.5 3.8 0.2 0.2 0.6
S11 S0+ 2.9 3.7 2.5 -.1 0.3 -.4
S12 S0+ 2.5 3.5 3. -.6 0.6 0.1
S13 S0+ 2.8 3.4 3.3 0 0 -.2
S14 S0+ 3.2 2.7 3.1 -.1 0.6 0.1
S15 S0+ 3.1 2.9 2.6 0.3 -.8 -.1
S16 S0+ 2.2 2.6 2.8 0.1 0.6 0.3
S17 S0+ 2.3 2.3 3. 0 0.5 -.3
S18 S0+ 2.4 4.2 2.4 -.3 -.4 0.4
#End of TTdata_15766-ICSD