
#(C) 2018 by FIZ Karlsruhe - Leibniz Institute for Information Infrastructure.  All rights reserved.
data_62050-ICSD
_database_code_ICSD 62050
_audit_creation_date 1988-02-22
_audit_update_record 2006-04-01
_chemical_name_systematic 'Tantalum telluride (1/4)'
_chemical_formula_structural 'Ta Te4'
_chemical_formula_sum 'Ta1 Te4'
_chemical_name_structure_type NbTe4(P4cc)
_exptl_crystal_density_diffrn 7.94
_publ_section_title
'The determination of the commensurately modulated structure of Ta Te4'
loop_
_citation_id
_citation_journal_full
_citation_year
_citation_journal_volume
_citation_page_first
_citation_page_last
_citation_journal_id_ASTM
primary 'Acta Crystallographica, Section B: Structural Science' 1987 43 305 313
ASBSDK
loop_
_publ_author_name
'Bronsema, K.D.'
'van Smaalen, S.'
'de Boer, J.L.'
'Wiegers, G.A.'
'Jellinek, F.'
'Mahy, J.'
_cell_length_a 6.5154(5)
_cell_length_b 6.5154(5)
_cell_length_c 6.8118(2)
_cell_angle_alpha 90.
_cell_angle_beta 90.
_cell_angle_gamma 90.
_cell_volume 289.16
_cell_formula_units_Z 2
_symmetry_space_group_name_H-M 'P 4 c c'
_symmetry_Int_Tables_number 103
_refine_ls_R_factor_all 0.079
loop_
_symmetry_equiv_pos_site_id
_symmetry_equiv_pos_as_xyz
1 'y, x, z+1/2'
2 '-y, -x, z+1/2'
3 'y, -x, z'
4 '-y, x, z'
5 'x, -y, z+1/2'
6 '-x, y, z+1/2'
7 '-x, -y, z'
8 'x, y, z'
loop_
_atom_type_symbol
_atom_type_oxidation_number
Ta0+ 0
Te0+ 0
loop_
_atom_site_label
_atom_site_type_symbol
_atom_site_symmetry_multiplicity
_atom_site_Wyckoff_symbol
_atom_site_fract_x
_atom_site_fract_y
_atom_site_fract_z
_atom_site_B_iso_or_equiv
_atom_site_occupancy
_atom_site_attached_hydrogens
Ta1 Ta0+ 2 a 0 0 0.2380(9) . 1. 0
Te1 Te0+ 8 d 0.1439(1) 0.3274(1) 0 . 1. 0
loop_
_atom_site_aniso_label
_atom_site_aniso_type_symbol
_atom_site_aniso_U_11
_atom_site_aniso_U_22
_atom_site_aniso_U_33
_atom_site_aniso_U_12
_atom_site_aniso_U_13
_atom_site_aniso_U_23
Ta1 Ta0+ 0.0060(2) 0.0060(2) 0.073(1) 0 0 0
Te1 Te0+ 0.0189(3) 0.0124(3) 0.0110(3) 0.0043(2) -.0023(7) -.0023(7)
#End of TTdata_62050-ICSD