
#(C) 2018 by FIZ Karlsruhe - Leibniz Institute for Information Infrastructure, and the U.S. Secretary of
#Commerce on behalf of the United States.  All rights reserved.
data_656334-ICSD
_database_code_ICSD 656334
_audit_creation_date 2013-08-01
_chemical_name_systematic 'Copper iron selenide (1/1/2)'
_chemical_formula_structural 'Cu Fe Se2'
_chemical_formula_sum 'Cu1 Fe1 Se2'
_exptl_crystal_density_diffrn 5.43
_publ_section_title
'Magnetic susceptibility, transport and Moessbauer measurements in Cu Fe Se2'
_publ_section_comment 'Cell and Type only determined'
loop_
_citation_id
_citation_journal_full
_citation_year
_citation_journal_volume
_citation_page_first
_citation_page_last
_citation_journal_id_ASTM
primary 'Hyperfine Interactions' 1991 67 517 522 HYINDN
loop_
_publ_author_name
'Lamazares, J.'
'Jaimes, E.'
'D'Onofrio, L.'
'Gonzalez-Jimenez, F.'
'Sanchez Porras, G.'
'Tovar, R.'
'Quintero, M.'
'Gonzalez, J.'
'Woolley, J.C.'
'Lamarche, G.'
_cell_length_a 5.539
_cell_length_b 5.539
_cell_length_c 11.06
_cell_angle_alpha 90.
_cell_angle_beta 90.
_cell_angle_gamma 90.
_cell_volume 339.33
_cell_formula_units_Z 4
_symmetry_space_group_name_H-M 'P -4 2 c'
_symmetry_Int_Tables_number 112
loop_
_symmetry_equiv_pos_site_id
_symmetry_equiv_pos_as_xyz
1 'y, x, z+1/2'
2 '-y, -x, z+1/2'
3 'y, -x, -z'
4 '-y, x, -z'
5 'x, -y, -z+1/2'
6 '-x, y, -z+1/2'
7 '-x, -y, z'
8 'x, y, z'
loop_
_atom_type_symbol
_atom_type_oxidation_number
Cu1+ 1
Fe3+ 3
Se2- -2
loop_
_atom_site_label
_atom_site_type_symbol
_atom_site_symmetry_multiplicity
_atom_site_Wyckoff_symbol
_atom_site_fract_x
_atom_site_fract_y
_atom_site_fract_z
_atom_site_B_iso_or_equiv
_atom_site_occupancy
_atom_site_attached_hydrogens
Cu1 Cu1+ 2 e 0 0 0 . 1. 0
Cu2 Cu1+ 2 a 0 0 0.25 . 1. 0
Fe1 Fe3+ 4 m 0 0.5 0 . 1. 0
Se1 Se2- 8 n 0.249 0.26 0.125 . 1. 0
#End of TTdata_656334-ICSD