
#(C) 2017 by FIZ Karlsruhe - Leibniz Institute for Information Infrastructure.  All rights reserved.
data_89239-ICSD
_database_code_ICSD 89239
_audit_creation_date 2001-07-16
_chemical_name_systematic 'Europium sulfide'
_chemical_formula_structural 'Eu S'
_chemical_formula_sum 'Eu1 S1'
_exptl_crystal_density_diffrn 3.71
_publ_section_title

;
Evidence of a mixed-valence state for europium in the misfit layer compound
[(Eu S)1.5]1.15 Nb S2 by means of a superspace structural determination,
Mossbauer spectroscopy, and magnetic measurements
;
loop_
_citation_id
_citation_journal_full
_citation_year
_citation_journal_volume
_citation_page_first
_citation_page_last
_citation_journal_id_ASTM
primary 'Journal of Solid State Chemistry' 1999 147 58 67 JSSCBI
loop_
_publ_author_name
'Cario, L.'
'Lafond, A.'
'Palvadeau, P.'
'Deudon, C.'
'Meerschaut, A.'
_cell_length_a 5.762(1)
_cell_length_b 5.7837(5)
_cell_length_c 29.6370(70)
_cell_angle_alpha 90.
_cell_angle_beta 90.
_cell_angle_gamma 90.
_cell_volume 987.67
_cell_formula_units_Z 12
_symmetry_space_group_name_H-M 'F m 2 m'
_symmetry_Int_Tables_number 42
_refine_ls_R_factor_all 0.036
loop_
_symmetry_equiv_pos_site_id
_symmetry_equiv_pos_as_xyz
1 'x, y, -z'
2 '-x, y, z'
3 '-x, y, -z'
4 'x, y, z'
5 'x, y+1/2, -z+1/2'
6 '-x, y+1/2, z+1/2'
7 '-x, y+1/2, -z+1/2'
8 'x, y+1/2, z+1/2'
9 'x+1/2, y, -z+1/2'
10 '-x+1/2, y, z+1/2'
11 '-x+1/2, y, -z+1/2'
12 'x+1/2, y, z+1/2'
13 'x+1/2, y+1/2, -z'
14 '-x+1/2, y+1/2, z'
15 '-x+1/2, y+1/2, -z'
16 'x+1/2, y+1/2, z'
loop_
_atom_type_symbol
_atom_type_oxidation_number
Eu0+ 0
S0+ 0
loop_
_atom_site_label
_atom_site_type_symbol
_atom_site_symmetry_multiplicity
_atom_site_Wyckoff_symbol
_atom_site_fract_x
_atom_site_fract_y
_atom_site_fract_z
_atom_site_B_iso_or_equiv
_atom_site_occupancy
_atom_site_attached_hydrogens
Eu1 Eu0+ 4 a 0 0 0 . 1. 0
Eu2 Eu0+ 8 d 0 0.4980(3) 0.11209(1) . 1. 0
S1 S0+ 4 a 0 0.495(1) 0 . 1. 0
S2 S0+ 8 d 0 -.0009(7) 0.09041(5) . 1. 0
loop_
_atom_site_aniso_label
_atom_site_aniso_type_symbol
_atom_site_aniso_U_11
_atom_site_aniso_U_22
_atom_site_aniso_U_33
_atom_site_aniso_U_12
_atom_site_aniso_U_13
_atom_site_aniso_U_23
Eu1 Eu0+ 0.0160(2) 0.0097(1) 0.0106(2) 0 0 0
Eu2 Eu0+ 0.0171(1) 0.0095(1) 0.0149(1) 0 0 -.0003(2)
S1 S0+ 0.016(1) 0.0096(7) 0.0164(9) 0 0 0
S2 S0+ 0.0181(7) 0.0099(5) 0.0116(5) 0 0 -.002(1)
#End of TTdata_89239-ICSD