
#(C) 2017 by FIZ Karlsruhe - Leibniz Institute for Information Infrastructure.  All rights reserved.
data_105410-ICSD
_database_code_ICSD 105410
_audit_creation_date 2004-10-01
_audit_update_record 2011-08-01
_chemical_name_systematic 'Nickel thorium (17/2)'
_chemical_formula_structural 'Ni17 Th2'
_chemical_formula_sum 'Ni17 Th2'
_chemical_name_structure_type Ni17Th2
_exptl_crystal_density_diffrn 9.83
_publ_section_title

;
Compounds of thorium with transition metals. II. Systems with iron, cobalt and
nickel
;
loop_
_citation_id
_citation_journal_full
_citation_year
_citation_journal_volume
_citation_page_first
_citation_page_last
_citation_journal_id_ASTM
primary 'Acta Crystallographica (1,1948-23,1967)' 1956 9 367 372 ACCRA9
loop_
_publ_author_name
'Florio, J.V.'
'Baenziger, N.C.'
'Rundle, R.E.'
_cell_length_a 8.37
_cell_length_b 8.37
_cell_length_c 8.14
_cell_angle_alpha 90.
_cell_angle_beta 90.
_cell_angle_gamma 120.
_cell_volume 493.86
_cell_formula_units_Z 2
_symmetry_space_group_name_H-M 'P 63/m m c'
_symmetry_Int_Tables_number 194
loop_
_symmetry_equiv_pos_site_id
_symmetry_equiv_pos_as_xyz
1 'x, x-y, -z+1/2'
2 '-x+y, y, -z+1/2'
3 '-y, -x, -z+1/2'
4 '-x+y, -x, -z+1/2'
5 '-y, x-y, -z+1/2'
6 'x, y, -z+1/2'
7 '-x, -x+y, z+1/2'
8 'x-y, -y, z+1/2'
9 'y, x, z+1/2'
10 'x-y, x, z+1/2'
11 'y, -x+y, z+1/2'
12 '-x, -y, z+1/2'
13 '-x, -x+y, -z'
14 'x-y, -y, -z'
15 'y, x, -z'
16 'x-y, x, -z'
17 'y, -x+y, -z'
18 '-x, -y, -z'
19 'x, x-y, z'
20 '-x+y, y, z'
21 '-y, -x, z'
22 '-x+y, -x, z'
23 '-y, x-y, z'
24 'x, y, z'
loop_
_atom_type_symbol
_atom_type_oxidation_number
Ni0+ 0
Th0+ 0
loop_
_atom_site_label
_atom_site_type_symbol
_atom_site_symmetry_multiplicity
_atom_site_Wyckoff_symbol
_atom_site_fract_x
_atom_site_fract_y
_atom_site_fract_z
_atom_site_B_iso_or_equiv
_atom_site_occupancy
_atom_site_attached_hydrogens
Ni1 Ni0+ 4 f 0.3333 0.6667 0.11 . 1. 0
Ni2 Ni0+ 6 g 0.5 0 0 . 1. 0
Ni3 Ni0+ 12 j 0.333 0. 0.25 . 1. 0
Ni4 Ni0+ 12 k 0.167 0.334 0. . 1. 0
Th1 Th0+ 2 b 0 0 0.25 . 1. 0
Th2 Th0+ 2 d 0.3333 0.6667 0.75 . 1. 0
#End of TTdata_105410-ICSD