
#(C) 2018 by FIZ Karlsruhe - Leibniz Institute for Information Infrastructure.  All rights reserved.
data_81766-ICSD
_database_code_ICSD 81766
_audit_creation_date 1997-05-13
_chemical_name_systematic 'Titanium phosphide deuteride (3/1/2.34)'
_chemical_formula_structural 'Ti3 P D2.34'
_chemical_formula_sum 'D2.34 P1 Ti3'
_chemical_name_structure_type Zr3PH3-frame
_exptl_crystal_density_diffrn 4.4
_cell_measurement_temperature 298.
_publ_section_title 'The crystal structure of Ti3 P D2.4'
loop_
_citation_id
_citation_journal_full
_citation_year
_citation_journal_volume
_citation_page_first
_citation_page_last
_citation_journal_id_ASTM
primary 'Journal of Alloys and Compounds' 1996 236 26 29 JALCEU
loop_
_publ_author_name
'Larsson, T.'
'Ahlzen, P.J.'
'Andersson, Y.'
'Rundqvist, S.'
'Tellgren, R.'
_cell_length_a 10.3466(4)
_cell_length_b 10.3466(4)
_cell_length_c 5.0589(3)
_cell_angle_alpha 90.
_cell_angle_beta 90.
_cell_angle_gamma 90.
_cell_volume 541.57
_cell_formula_units_Z 8
_symmetry_space_group_name_H-M 'P 42/n b c Z'
_symmetry_Int_Tables_number 133
_refine_ls_R_factor_all 0.01
loop_
_symmetry_equiv_pos_site_id
_symmetry_equiv_pos_as_xyz
1 'y, x, -z+1/2'
2 '-y, x+1/2, -z+1/2'
3 'y+1/2, -x, -z+1/2'
4 '-y+1/2, -x+1/2, -z+1/2'
5 'x+1/2, y+1/2, -z'
6 '-x+1/2, y, -z'
7 'x, -y+1/2, -z'
8 '-x, -y, -z'
9 '-y, -x, z+1/2'
10 'y, -x+1/2, z+1/2'
11 '-y+1/2, x, z+1/2'
12 'y+1/2, x+1/2, z+1/2'
13 '-x+1/2, -y+1/2, z'
14 'x+1/2, -y, z'
15 '-x, y+1/2, z'
16 'x, y, z'
loop_
_atom_type_symbol
_atom_type_oxidation_number
Ti0+ 0
P0+ 0
D0+ 0
loop_
_atom_site_label
_atom_site_type_symbol
_atom_site_symmetry_multiplicity
_atom_site_Wyckoff_symbol
_atom_site_fract_x
_atom_site_fract_y
_atom_site_fract_z
_atom_site_B_iso_or_equiv
_atom_site_occupancy
_atom_site_attached_hydrogens
Ti1 Ti0+ 8 j 0.1543(6) 0.1543(6) 0.25 0.3(1) 1. 0
Ti2 Ti0+ 8 h 0.6109(6) 0.25 0 0.3(1) 1. 0
Ti3 Ti0+ 8 j 0.5536(5) 0.5536(5) 0.25 0.3(1) 1. 0
P1 P0+ 8 i 0.5426(5) 0.25 0.5 0.7(1) 1. 0
D1 D0+ 4 a 0.25 0.25 0 1.1(1) 0.44(2) 0
D2 D0+ 16 k 0.0029(4) 0.1066(4) 0.0783(6) 1.1(1) 0.84(1) 0
D3 D0+ 16 k 0.174(1) 0.322(1) 0.136(3) 1.1(1) 0.22(1) 0
#End of TTdata_81766-ICSD