
#(C) 2017 by FIZ Karlsruhe - Leibniz Institute for Information Infrastructure.  All rights reserved.
data_43218-ICSD
_database_code_ICSD 43218
_audit_creation_date 2000-07-15
_audit_update_record 2007-08-01
_chemical_name_systematic 'Uranium - beta'
_chemical_formula_structural U
_chemical_formula_sum U1
_chemical_name_structure_type U(beta)-CrFe
_exptl_crystal_density_diffrn 18.11
_cell_measurement_temperature 993.
_publ_section_title
'The minimum-residual refinement of beta-uranium from polycristalline data'
loop_
_citation_id
_citation_journal_full
_citation_year
_citation_journal_volume
_citation_page_first
_citation_page_last
_citation_journal_id_ASTM
primary 'Acta Crystallographica (1,1948-23,1967)' 1966 21 995 998 ACCRA9
loop_
_publ_author_name
'Steeple, H.'
'Ashworth, T.'
_cell_length_a 10.759(1)
_cell_length_b 10.759(1)
_cell_length_c 5.656(1)
_cell_angle_alpha 90.
_cell_angle_beta 90.
_cell_angle_gamma 90.
_cell_volume 654.72
_cell_formula_units_Z 30
_symmetry_space_group_name_H-M 'P 42/m n m'
_symmetry_Int_Tables_number 136
_refine_ls_R_factor_all 0.23
loop_
_symmetry_equiv_pos_site_id
_symmetry_equiv_pos_as_xyz
1 '-y+1/2, x+1/2, -z+1/2'
2 'y+1/2, -x+1/2, -z+1/2'
3 'y, x, -z'
4 '-y, -x, -z'
5 'y+1/2, -x+1/2, z+1/2'
6 '-y+1/2, x+1/2, z+1/2'
7 '-y, -x, z'
8 'y, x, z'
9 'x+1/2, -y+1/2, -z+1/2'
10 '-x+1/2, y+1/2, -z+1/2'
11 'x, y, -z'
12 '-x, -y, -z'
13 '-x+1/2, y+1/2, z+1/2'
14 'x+1/2, -y+1/2, z+1/2'
15 '-x, -y, z'
16 'x, y, z'
loop_
_atom_type_symbol
_atom_type_oxidation_number
U0+ 0
loop_
_atom_site_label
_atom_site_type_symbol
_atom_site_symmetry_multiplicity
_atom_site_Wyckoff_symbol
_atom_site_fract_x
_atom_site_fract_y
_atom_site_fract_z
_atom_site_B_iso_or_equiv
_atom_site_occupancy
_atom_site_attached_hydrogens
U1 U0+ 2 b 0 0 0.5 1. 1. 0
U2 U0+ 4 f 0.0977 0.0977 0 1. 1. 0
U3 U0+ 8 j 0.3206 0.3206 0.2772 1. 1. 0
U4 U0+ 8 i 0.5612 0.2142 0 1. 1. 0
U5 U0+ 8 i 0.3704 0.0459 0 1. 1. 0
#End of TTdata_43218-ICSD