
#(C) 2017 by FIZ Karlsruhe - Leibniz Institute for Information Infrastructure.  All rights reserved.
data_291479-ICSD
_database_code_ICSD 291479
_audit_creation_date 2016-02-01
_chemical_name_systematic Silicon
_chemical_formula_structural Si24
_chemical_formula_sum Si24
_exptl_crystal_density_diffrn 2.17
_publ_section_title 'Synthesis of an open-framework allotrope of silicon'
loop_
_citation_id
_citation_journal_full
_citation_year
_citation_journal_volume
_citation_page_first
_citation_page_last
_citation_journal_id_ASTM
primary 'Nature Materials' 2015 14 169 173 NMAACR
loop_
_publ_author_name
'Kim, Duck Young'
'Stefanoski, Stevce'
'Kurakevych, Oleksandr O.'
'Strobel, Timothy A.'
_cell_length_a 3.82236(14)
_cell_length_b 10.7007(4)
_cell_length_c 12.6258(5)
_cell_angle_alpha 90.
_cell_angle_beta 90.
_cell_angle_gamma 90.
_cell_volume 516.43
_cell_formula_units_Z 1
_symmetry_space_group_name_H-M 'C m c m'
_symmetry_Int_Tables_number 63
_refine_ls_R_factor_all 0.0291
loop_
_symmetry_equiv_pos_site_id
_symmetry_equiv_pos_as_xyz
1 '-x, y, -z+1/2'
2 '-x, -y, z+1/2'
3 '-x, y, z'
4 '-x, -y, -z'
5 'x, -y, z+1/2'
6 'x, y, -z+1/2'
7 'x, -y, -z'
8 'x, y, z'
9 '-x+1/2, y+1/2, -z+1/2'
10 '-x+1/2, -y+1/2, z+1/2'
11 '-x+1/2, y+1/2, z'
12 '-x+1/2, -y+1/2, -z'
13 'x+1/2, -y+1/2, z+1/2'
14 'x+1/2, y+1/2, -z+1/2'
15 'x+1/2, -y+1/2, -z'
16 'x+1/2, y+1/2, z'
loop_
_atom_type_symbol
_atom_type_oxidation_number
Si0+ 0
loop_
_atom_site_label
_atom_site_type_symbol
_atom_site_symmetry_multiplicity
_atom_site_Wyckoff_symbol
_atom_site_fract_x
_atom_site_fract_y
_atom_site_fract_z
_atom_site_B_iso_or_equiv
_atom_site_occupancy
_atom_site_attached_hydrogens
Si1 Si0+ 8 f 0 0.2435(2) 0.5551(2) 0.0119(7) 1. 0
Si2 Si0+ 8 f 0 0.5705(2) 0.3412(2) 0.0119(6) 1. 0
Si3 Si0+ 8 f 0 0.0284(2) 0.5903(2) 0.0073(6) 1. 0
#End of TTdata_291479-ICSD