
#(C) 2017 by FIZ Karlsruhe - Leibniz Institute for Information Infrastructure.  All rights reserved.
data_37016-ICSD
_database_code_ICSD 37016
_audit_creation_date 1983-12-31
_chemical_name_systematic 'Disulfur dichloride'
_chemical_formula_structural 'S2 Cl2'
_chemical_formula_sum 'Cl2 S2'
_exptl_crystal_density_diffrn 2.04
_cell_measurement_temperature 165.
_publ_section_title
'Kristallstrukturen von Verbindungen A2 X2 (A= S,Se; X= Cl,Br)'
loop_
_citation_id
_citation_journal_full
_citation_year
_citation_journal_volume
_citation_page_first
_citation_page_last
_citation_journal_id_ASTM
primary

;
Zeitschrift fuer Naturforschung, Teil B. Anorganische Chemie, Organische
Chemie (33,1978-41,1986)
; 1983 38 1 6 ZNBAD2
loop_
_publ_author_name
'Kniep, R.'
'Korte, L.'
'Mootz, D.'
_cell_length_a 17.276(3)
_cell_length_b 21.370(4)
_cell_length_c 4.7616(7)
_cell_angle_alpha 90.
_cell_angle_beta 90.
_cell_angle_gamma 90.
_cell_volume 1757.93
_cell_formula_units_Z 16
_symmetry_space_group_name_H-M 'F d d 2'
_symmetry_Int_Tables_number 43
_refine_ls_R_factor_all 0.022
loop_
_symmetry_equiv_pos_site_id
_symmetry_equiv_pos_as_xyz
1 'x+1/4, -y+1/4, z+1/4'
2 '-x+1/4, y+1/4, z+1/4'
3 '-x, -y, z'
4 'x, y, z'
5 'x+1/4, -y+3/4, z+3/4'
6 '-x+1/4, y+3/4, z+3/4'
7 '-x, -y+1/2, z+1/2'
8 'x, y+1/2, z+1/2'
9 'x+3/4, -y+1/4, z+3/4'
10 '-x+3/4, y+1/4, z+3/4'
11 '-x+1/2, -y, z+1/2'
12 'x+1/2, y, z+1/2'
13 'x+3/4, -y+3/4, z+1/4'
14 '-x+3/4, y+3/4, z+1/4'
15 '-x+1/2, -y+1/2, z'
16 'x+1/2, y+1/2, z'
loop_
_atom_type_symbol
_atom_type_oxidation_number
S1+ 1
Cl1- -1
loop_
_atom_site_label
_atom_site_type_symbol
_atom_site_symmetry_multiplicity
_atom_site_Wyckoff_symbol
_atom_site_fract_x
_atom_site_fract_y
_atom_site_fract_z
_atom_site_B_iso_or_equiv
_atom_site_occupancy
_atom_site_attached_hydrogens
S1 S1+ 16 b 0.17602(3) 0.43251(2) 0 . 1. 0
S2 S1+ 16 b 0.26692(2) 0.40691(2) 0.2108(2) . 1. 0
Cl1 Cl1- 16 b 0.11734(3) 0.49698(2) 0.2436(2) . 1. 0
Cl2 Cl1- 16 b 0.23174(3) 0.33561(2) 0.4781(2) . 1. 0
loop_
_atom_site_aniso_label
_atom_site_aniso_type_symbol
_atom_site_aniso_B_11
_atom_site_aniso_B_22
_atom_site_aniso_B_33
_atom_site_aniso_B_12
_atom_site_aniso_B_13
_atom_site_aniso_B_23
S1 S1+ 2.39(2) 2.27(2) 2.15(2) 0.30(1) 0.06(1) 0.03(1)
S2 S1+ 1.57(2) 2.26(2) 3.24(2) -.06(1) 0.05(1) -.20(2)
Cl1 Cl1- 2.59(2) 2.29(2) 3.22(2) 0.63(1) 0.27(2) -.15(2)
Cl2 Cl1- 2.91(2) 2.26(2) 2.63(2) 0.41(1) -.28(2) 0.07(1)
#End of TTdata_37016-ICSD