
#(C) 2017 by FIZ Karlsruhe - Leibniz Institute for Information Infrastructure.  All rights reserved.
data_241894-ICSD
_database_code_ICSD 241894
_audit_creation_date 2017-08-01
_chemical_name_systematic 'Triuranium heptaoxide'
_chemical_formula_structural 'U3 O7'
_chemical_formula_sum 'O7 U3'
_exptl_crystal_density_diffrn 11.39
_publ_section_title
'Assessment of the U3 O7 crystal structure by X-ray and electron diffraction'
loop_
_citation_id
_citation_journal_full
_citation_year
_citation_journal_volume
_citation_page_first
_citation_page_last
_citation_journal_id_ASTM
primary 'Inorganic Chemistry' 2016 55 9923 9936 INOCAJ
loop_
_publ_author_name
'Leinders, Gregory'
'Delville, Remi'
'Pakarinen, Janne'
'Cardinaels, Thomas'
'Binnemans, Koen'
'Verwerft, Marc'
_cell_length_a 12.0300(4)
_cell_length_b 12.0300(4)
_cell_length_c 16.6500(6)
_cell_angle_alpha 90.
_cell_angle_beta 90.
_cell_angle_gamma 90.
_cell_volume 2409.6
_cell_formula_units_Z 20
_symmetry_space_group_name_H-M 'P 42/n Z'
_symmetry_Int_Tables_number 86
loop_
_symmetry_equiv_pos_site_id
_symmetry_equiv_pos_as_xyz
1 '-y+1/2, x, -z+1/2'
2 'y, -x+1/2, -z+1/2'
3 'x+1/2, y+1/2, -z'
4 '-x, -y, -z'
5 'y+1/2, -x, z+1/2'
6 '-y, x+1/2, z+1/2'
7 '-x+1/2, -y+1/2, z'
8 'x, y, z'
loop_
_atom_type_symbol
_atom_type_oxidation_number
U4+ 4.67
O2- -2
loop_
_atom_site_label
_atom_site_type_symbol
_atom_site_symmetry_multiplicity
_atom_site_Wyckoff_symbol
_atom_site_fract_x
_atom_site_fract_y
_atom_site_fract_z
_atom_site_B_iso_or_equiv
_atom_site_occupancy
_atom_site_attached_hydrogens
U1 U4+ 4 d 0.5 0. 0. . 1. 0
U2 U4+ 8 g 0.5 0. 0.3333 . 1. 0
U3 U4+ 8 g 0.1 0.2 0. . 1. 0
U4 U4+ 8 g 0.1 0.2 0.3333 . 1. 0
U5 U4+ 8 g 0.3 0.6 0. . 1. 0
U6 U4+ 8 g 0.3 0.6 0.3333 . 1. 0
U7 U4+ 8 g 0.6 0.7 0.3333 . 1. 0
U8 U4+ 8 g 0.7 0.4 0.3333 . 1. 0
O1 O2- 4 f 0.25 0.25 0.0833 . 1. 0
O2 O2- 2 a 0.25 0.25 0.25 . 1. 0
O3 O2- 4 f 0.75 0.75 0.0833 . 1. 0
O4 O2- 2 b 0.75 0.75 0.25 . 1. 0
O5 O2- 4 e 0.25 0.75 0.0833 . 1. 0
O6 O2- 4 e 0.25 0.75 0.25 . 1. 0
O7 O2- 4 e 0.25 0.75 0.4167 . 1. 0
O8 O2- 8 g -0.05 0.15 0.25 . 1. 0
O9 O2- 8 g -0.05 0.15 0.4167 . 1. 0
O10 O2- 8 g 0.05 0.35 0.0833 . 1. 0
O11 O2- 8 g 0.05 0.35 0.25 . 1. 0
O12 O2- 8 g -0.05 0.65 0.0833 . 1. 0
O13 O2- 8 g -0.05 0.65 0.25 . 1. 0
O14 O2- 8 g 0.05 0.85 0.25 . 1. 0
O15 O2- 8 g 0.05 0.85 0.4167 . 1. 0
O16 O2- 4 c 0. 0. 0. . 1. 0
O17 O2- 8 g -0.082 0.246 0. . 1. 0
O18 O2- 8 g -0.246 -0.082 0. . 1. 0
O19 O2- 8 g 0.02 0.195 0.137 . 1. 0
O20 O2- 8 g -0.144 -0.133 0.137 . 1. 0
O21 O2- 8 g -0.133 0.144 0.137 . 1. 0
O22 O2- 8 g 0.195 -0.02 0.137 . 1. 0
#End of TTdata_241894-ICSD