
#(C) 2018 by FIZ Karlsruhe - Leibniz Institute for Information Infrastructure.  All rights reserved.
data_154261-ICSD
_database_code_ICSD 154261
_audit_creation_date 2007-04-01
_chemical_name_systematic 'Potassium triiodotitanate(II)'
_chemical_formula_structural 'K (Ti I3)'
_chemical_formula_sum 'I3 K1 Ti1'
_chemical_name_structure_type KTiCl3
_exptl_crystal_density_diffrn 4.42
_publ_section_title
'Divalent titanium: the halides A Ti X3 (A= K, Rb, Cs; X= Cl, Br, I)'
loop_
_citation_id
_citation_journal_full
_citation_year
_citation_journal_volume
_citation_page_first
_citation_page_last
_citation_journal_id_ASTM
primary 'Zeitschrift fuer Anorganische und Allgemeine Chemie (1950) (DE)' 2005
631 582 586 ZAACAB
loop_
_publ_author_name
'Jongen, L.'
'Gloger, T.'
'Beekhuizen, J.'
'Meyer, G.'
_cell_length_a 13.536(2)
_cell_length_b 13.536(2)
_cell_length_c 6.6462(9)
_cell_angle_alpha 90.
_cell_angle_beta 90.
_cell_angle_gamma 120.
_cell_volume 1054.59
_cell_formula_units_Z 6
_symmetry_space_group_name_H-M 'P 63'
_symmetry_Int_Tables_number 173
_refine_ls_R_factor_all 0.0652
loop_
_symmetry_equiv_pos_site_id
_symmetry_equiv_pos_as_xyz
1 'x-y, x, z+1/2'
2 'y, -x+y, z+1/2'
3 '-x, -y, z+1/2'
4 '-x+y, -x, z'
5 '-y, x-y, z'
6 'x, y, z'
loop_
_atom_type_symbol
_atom_type_oxidation_number
K1+ 1
Ti2+ 2
I1- -1
loop_
_atom_site_label
_atom_site_type_symbol
_atom_site_symmetry_multiplicity
_atom_site_Wyckoff_symbol
_atom_site_fract_x
_atom_site_fract_y
_atom_site_fract_z
_atom_site_B_iso_or_equiv
_atom_site_occupancy
_atom_site_attached_hydrogens
K1 K1+ 6 c 0.0059(1) 0.321(1) 0.907(3) 0.172(7) 1. 0
Ti1 Ti2+ 2 a 0 0 0.604(2) 0.039(2) 1. 0
Ti2 Ti2+ 2 b 0.6667 0.3333 0.772(2) 0.055(3) 1. 0
Ti3 Ti2+ 2 b 0.6667 0.3333 0.273(2) 0.055(3) 1. 0
I1 I1- 6 c 0.1587(2) 0.1788(2) 0.8520(3) 0.0703(7) 1. 0
I2 I1- 6 c 0.4813(2) 0.2827(2) 0.0168(6) 0.092(1) 1. 0
I3 I1- 6 c 0.8568(2) 0.3858(3) 0.5152(6) 0.0928(9) 1. 0
#End of TTdata_154261-ICSD