
#(C) 2018 by FIZ Karlsruhe - Leibniz Institute for Information Infrastructure.  All rights reserved.
data_36135-ICSD
_database_code_ICSD 36135
_audit_creation_date 1980-01-01
_audit_update_record 2007-04-01
_chemical_name_systematic 'Dipotassium lead hexanitrato(III)cuprate'
_chemical_formula_structural 'K2 Pb (Cu (N O2)6)'
_chemical_formula_sum 'Cu1 K2 N6 O12 Pb1'
_exptl_crystal_density_diffrn 3.41
_publ_section_title
'Sulla struttura dell anione complesso nei metallo-esanitriti'
loop_
_citation_id
_citation_journal_full
_citation_year
_citation_journal_volume
_citation_page_first
_citation_page_last
_citation_journal_id_ASTM
primary 'Gazzetta Chimica Italiana' 1956 86 1041 1044 GCITA9
loop_
_publ_author_name
'Cavalca, L.'
'Nardelli, M.'
'Grazioli, D.'
_cell_length_a 10.68(2)
_cell_length_b 10.68(2)
_cell_length_c 10.68(2)
_cell_angle_alpha 90.
_cell_angle_beta 90.
_cell_angle_gamma 90.
_cell_volume 1218.19
_cell_formula_units_Z 4
_symmetry_space_group_name_H-M 'F 2 3'
_symmetry_Int_Tables_number 196
_refine_ls_R_factor_all 0.103
loop_
_symmetry_equiv_pos_site_id
_symmetry_equiv_pos_as_xyz
1 '-z, -x, y'
2 '-y, -z, x'
3 '-x, -y, z'
4 '-z, x, -y'
5 '-y, z, -x'
6 '-x, y, -z'
7 'z, -x, -y'
8 'y, -z, -x'
9 'x, -y, -z'
10 'z, x, y'
11 'y, z, x'
12 'x, y, z'
13 '-z, -x+1/2, y+1/2'
14 '-y, -z+1/2, x+1/2'
15 '-x, -y+1/2, z+1/2'
16 '-z, x+1/2, -y+1/2'
17 '-y, z+1/2, -x+1/2'
18 '-x, y+1/2, -z+1/2'
19 'z, -x+1/2, -y+1/2'
20 'y, -z+1/2, -x+1/2'
21 'x, -y+1/2, -z+1/2'
22 'z, x+1/2, y+1/2'
23 'y, z+1/2, x+1/2'
24 'x, y+1/2, z+1/2'
25 '-z+1/2, -x, y+1/2'
26 '-y+1/2, -z, x+1/2'
27 '-x+1/2, -y, z+1/2'
28 '-z+1/2, x, -y+1/2'
29 '-y+1/2, z, -x+1/2'
30 '-x+1/2, y, -z+1/2'
31 'z+1/2, -x, -y+1/2'
32 'y+1/2, -z, -x+1/2'
33 'x+1/2, -y, -z+1/2'
34 'z+1/2, x, y+1/2'
35 'y+1/2, z, x+1/2'
36 'x+1/2, y, z+1/2'
37 '-z+1/2, -x+1/2, y'
38 '-y+1/2, -z+1/2, x'
39 '-x+1/2, -y+1/2, z'
40 '-z+1/2, x+1/2, -y'
41 '-y+1/2, z+1/2, -x'
42 '-x+1/2, y+1/2, -z'
43 'z+1/2, -x+1/2, -y'
44 'y+1/2, -z+1/2, -x'
45 'x+1/2, -y+1/2, -z'
46 'z+1/2, x+1/2, y'
47 'y+1/2, z+1/2, x'
48 'x+1/2, y+1/2, z'
loop_
_atom_type_symbol
_atom_type_oxidation_number
K1+ 1
Pb2+ 2
Cu2+ 2
N3+ 3
O2- -2
loop_
_atom_site_label
_atom_site_type_symbol
_atom_site_symmetry_multiplicity
_atom_site_Wyckoff_symbol
_atom_site_fract_x
_atom_site_fract_y
_atom_site_fract_z
_atom_site_B_iso_or_equiv
_atom_site_occupancy
_atom_site_attached_hydrogens
K1 K1+ 4 c 0.25 0.25 0.25 . 1. 0
K2 K1+ 4 d 0.75 0.75 0.75 . 1. 0
Pb1 Pb2+ 4 b 0.5 0.5 0.5 . 1. 0
Cu1 Cu2+ 4 a 0 0 0 . 1. 0
N1 N3+ 24 f 0.191 0 0 . 1. 0
O1 O2- 48 h 0.017 0.267 0.105 . 1. 0
#End of TTdata_36135-ICSD