
#(C) 2017 by FIZ Karlsruhe - Leibniz Institute for Information Infrastructure.  All rights reserved.
data_157920-ICSD
_database_code_ICSD 157920
_audit_creation_date 2008-02-01
_chemical_name_systematic 'Dysprosium - oS8'
_chemical_formula_structural Dy
_chemical_formula_sum Dy1
_chemical_name_structure_type IrV
_exptl_crystal_density_diffrn 16.62
_cell_measurement_temperature 293.
_cell_measurement_pressure 87000000.
_publ_section_title

;
High-pressure structural studies of dysprosium using angle-dispersive x-ray
diffraction
;
loop_
_citation_id
_citation_journal_full
_citation_year
_citation_journal_volume
_citation_page_first
_citation_page_last
_citation_journal_id_ASTM
primary 'Physical Review, Serie 3. B - Condensed Matter (18,1978-)' 2007 75
064109-1 064109-9 PRBMDO
loop_
_publ_author_name
'Shen Yongrong'
'Kumar, R.S.'
'Cornelius, A.L.'
'Nicol, M.F.'
_cell_length_a 7.8958(7)
_cell_length_b 5.6307(1)
_cell_length_c 2.922(1)
_cell_angle_alpha 90.
_cell_angle_beta 90.
_cell_angle_gamma 90.
_cell_volume 129.91
_cell_formula_units_Z 8
_symmetry_space_group_name_H-M 'C m m m'
_symmetry_Int_Tables_number 65
loop_
_symmetry_equiv_pos_site_id
_symmetry_equiv_pos_as_xyz
1 'x, -y, z'
2 '-x, y, z'
3 'x, y, -z'
4 '-x, -y, -z'
5 '-x, y, -z'
6 'x, -y, -z'
7 '-x, -y, z'
8 'x, y, z'
9 'x+1/2, -y+1/2, z'
10 '-x+1/2, y+1/2, z'
11 'x+1/2, y+1/2, -z'
12 '-x+1/2, -y+1/2, -z'
13 '-x+1/2, y+1/2, -z'
14 'x+1/2, -y+1/2, -z'
15 '-x+1/2, -y+1/2, z'
16 'x+1/2, y+1/2, z'
loop_
_atom_type_symbol
_atom_type_oxidation_number
Dy0+ 0
loop_
_atom_site_label
_atom_site_type_symbol
_atom_site_symmetry_multiplicity
_atom_site_Wyckoff_symbol
_atom_site_fract_x
_atom_site_fract_y
_atom_site_fract_z
_atom_site_B_iso_or_equiv
_atom_site_occupancy
_atom_site_attached_hydrogens
Dy1 Dy0+ 4 g 0.2121(1) 0 0 . 1. 0
Dy2 Dy0+ 4 j 0 0.2677(1) 0.5 . 1. 0
#End of TTdata_157920-ICSD