
#(C) 2018 by FIZ Karlsruhe - Leibniz Institute for Information Infrastructure.  All rights reserved.
data_75320-ICSD
_database_code_ICSD 75320
_audit_creation_date 1996-04-22
_audit_update_record 2008-02-01
_chemical_name_systematic 'Niobium telluride (1/4) - LT'
_chemical_formula_structural 'Nb Te4'
_chemical_formula_sum 'Nb1 Te4'
_exptl_crystal_density_diffrn 6.99
_cell_measurement_temperature 100.
_publ_section_title 'The low-temperature structure of Nb Te4'
loop_
_citation_id
_citation_journal_full
_citation_year
_citation_journal_volume
_citation_page_first
_citation_page_last
_citation_journal_id_ASTM
primary 'Acta Crystallographica, Section B: Structural Science' 1994 50 649 655
ASBSDK
loop_
_publ_author_name
'Kusz, J.'
'Boehm, H.'
_cell_length_a 12.967(2)
_cell_length_b 12.967(2)
_cell_length_c 20.465(2)
_cell_angle_alpha 90.
_cell_angle_beta 90.
_cell_angle_gamma 90.
_cell_volume 3441.05
_cell_formula_units_Z 24
_symmetry_space_group_name_H-M 'P 4'
_symmetry_Int_Tables_number 75
_refine_ls_R_factor_all 0.06
loop_
_symmetry_equiv_pos_site_id
_symmetry_equiv_pos_as_xyz
1 '-y, x, z'
2 'y, -x, z'
3 '-x, -y, z'
4 'x, y, z'
loop_
_atom_type_symbol
_atom_type_oxidation_number
Nb4+ 4
Te1- -1
loop_
_atom_site_label
_atom_site_type_symbol
_atom_site_symmetry_multiplicity
_atom_site_Wyckoff_symbol
_atom_site_fract_x
_atom_site_fract_y
_atom_site_fract_z
_atom_site_B_iso_or_equiv
_atom_site_occupancy
_atom_site_attached_hydrogens
Nb1 Nb4+ 1 a 0 0 0.0915(5) . 1. 0
Nb2 Nb4+ 1 a 0 0 0.2409(5) . 1. 0
Nb3 Nb4+ 1 a 0 0 0.3978(5) . 1. 0
Nb4 Nb4+ 1 a 0 0 0.5925(5) . 1. 0
Nb5 Nb4+ 1 a 0 0 0.7513(5) . 1. 0
Nb6 Nb4+ 1 a 0 0 0.9022(5) . 1. 0
Nb7 Nb4+ 1 b 0.5 0.5 0.0693(5) . 1. 0
Nb8 Nb4+ 1 b 0.5 0.5 0.2458(5) . 1. 0
Nb9 Nb4+ 1 b 0.5 0.5 0.4091(5) . 1. 0
Nb10 Nb4+ 1 b 0.5 0.5 0.5700(6) . 1. 0
Nb11 Nb4+ 1 b 0.5 0.5 0.7561(5) . 1. 0
Nb12 Nb4+ 1 b 0.5 0.5 0.9110(6) . 1. 0
Nb13 Nb4+ 2 c 0.5 0 0.0758(3) . 1. 0
Nb14 Nb4+ 2 c 0.5 0 0.2364(2) . 1. 0
Nb15 Nb4+ 2 c 0.5 0 0.4288(3) . 1. 0
Nb16 Nb4+ 2 c 0.5 0 0.5844(4) . 1. 0
Nb17 Nb4+ 2 c 0.5 0 0.7339(3) . 1. 0
Nb18 Nb4+ 2 c 0.5 0 0.9241(3) . 1. 0
Te1 Te1- 4 d 0.0631(3) 0.1560(3) 0.0000(2) . 1. 0
Te2 Te1- 4 d 0.1693(3) 0.0734(3) 0.1691(2) . 1. 0
Te3 Te1- 4 d 0.0802(3) 0.1635(3) 0.3290(2) . 1. 0
Te4 Te1- 4 d 0.1557(3) 0.0626(3) 0.4996(2) . 1. 0
Te5 Te1- 4 d 0.0749(3) 0.1691(3) 0.6683(2) . 1. 0
Te6 Te1- 4 d 0.1633(3) 0.0760(3) 0.8294(2) . 1. 0
Te7 Te1- 4 d 0.5684(3) 0.6670(3) -.0033(3) . 1. 0
Te8 Te1- 4 d 0.6615(3) 0.5705(3) 0.1643(3) . 1. 0
Te9 Te1- 4 d 0.5791(3) 0.6670(4) 0.3319(3) . 1. 0
Te10 Te1- 4 d 0.6663(3) 0.5683(3) 0.4974(3) . 1. 0
Te11 Te1- 4 d 0.5716(3) 0.6619(3) 0.6647(3) . 1. 0
Te12 Te1- 4 d 0.6666(3) 0.5818(3) 0.8321(3) . 1. 0
Te13 Te1- 4 d 0.5798(3) 0.1668(4) -.0005(2) . 1. 0
Te14 Te1- 4 d 0.3349(4) 0.0751(4) -.0002(2) . 1. 0
Te15 Te1- 4 d 0.6668(3) 0.0754(3) 0.1622(2) . 1. 0
Te16 Te1- 4 d 0.4271(3) 0.1668(4) 0.1629(2) . 1. 0
Te17 Te1- 4 d 0.5621(3) 0.1605(3) 0.3116(2) . 1. 0
Te18 Te1- 4 d 0.3414(3) 0.0629(3) 0.3305(2) . 1. 0
Te19 Te1- 4 d 0.6663(4) 0.0765(4) 0.5 . 1. 0
Te20 Te1- 4 d 0.4203(3) 0.1653(4) 0.4999(2) . 1. 0
Te21 Te1- 4 d 0.5730(3) 0.1682(3) 0.6626(2) . 1. 0
Te22 Te1- 4 d 0.3346(3) 0.0747(3) 0.6621(3) . 1. 0
Te23 Te1- 4 d 0.6589(3) 0.0610(3) 0.8300(2) . 1. 0
Te24 Te1- 4 d 0.4358(3) 0.1603(4) 0.8317(2) . 1. 0
loop_
_atom_site_aniso_label
_atom_site_aniso_type_symbol
_atom_site_aniso_U_11
_atom_site_aniso_U_22
_atom_site_aniso_U_33
_atom_site_aniso_U_12
_atom_site_aniso_U_13
_atom_site_aniso_U_23
Nb1 Nb4+ 0.0021(1) 0.0021(1) 0.0052(1) 0 0 0
Nb2 Nb4+ 0.0021(1) 0.0021(1) 0.0052(1) 0.0(16) 0 0
Nb3 Nb4+ 0.0021(1) 0.0021(1) 0.0052(1) 0 0 0
Nb4 Nb4+ 0.0021(1) 0.0021(1) 0.0052(1) 0 0 0
Nb5 Nb4+ 0.0021(1) 0.0021(1) 0.0052(1) 0 0 0
Nb6 Nb4+ 0.0021(1) 0.0021(1) 0.0052(1) 0 0 0
Nb7 Nb4+ 0.0021(1) 0.0021(1) 0.0052(1) 0 0 0
Nb8 Nb4+ 0.0021(1) 0.0021(1) 0.0052(1) 0 0 0
Nb9 Nb4+ 0.0021(1) 0.0021(1) 0.0052(1) 0 0 0
Nb10 Nb4+ 0.0021(1) 0.0021(1) 0.0052(1) 0 0 0
Nb11 Nb4+ 0.0021(1) 0.0021(1) 0.0052(1) 0 0 0
Nb12 Nb4+ 0.0021(1) 0.0021(1) 0.0052(1) 0 0 0
Nb13 Nb4+ 0.0021(1) 0.0021(1) 0.0052(1) 0 0 0
Nb14 Nb4+ 0.0021(1) 0.0021(1) 0.0052(1) 0 0 0
Nb15 Nb4+ 0.0021(1) 0.0021(1) 0.0052(1) 0 0 0
Nb16 Nb4+ 0.0021(1) 0.0021(1) 0.0052(1) 0 0 0
Nb17 Nb4+ 0.0021(1) 0.0021(1) 0.0052(1) 0 0 0
Nb18 Nb4+ 0.0021(1) 0.0021(1) 0.0052(1) 0 0 0
Te1 Te1- 0.0059(1) 0.0024(1) 0.0048(1) 0.0016(1) 0.0000(2) 0.0000(2)
Te2 Te1- 0.0059(1) 0.0024(1) 0.0048(1) 0.0016(1) 0.0000(2) 0.0000(2)
Te3 Te1- 0.0059(1) 0.0024(1) 0.0048(1) 0.0016(1) 0.0000(2) 0.0000(2)
Te4 Te1- 0.0059(1) 0.0024(1) 0.0048(1) 0.0016(1) 0.0000(2) 0.0000(2)
Te5 Te1- 0.0059(1) 0.0024(1) 0.0048(1) 0.0016(1) 0.0000(2) 0.0000(2)
Te6 Te1- 0.0059(1) 0.0024(1) 0.0048(1) 0.0016(1) 0.0000(2) 0.0000(2)
Te7 Te1- 0.0059(1) 0.0024(1) 0.0048(1) 0.0016(1) 0.0000(2) 0.0000(2)
Te8 Te1- 0.0059(1) 0.0024(1) 0.0048(1) 0.0016(1) 0.0000(2) 0.0000(2)
Te9 Te1- 0.0059(1) 0.0024(1) 0.0048(1) 0.0016(1) 0.0000(2) 0.0000(2)
Te10 Te1- 0.0059(1) 0.0024(1) 0.0048(1) 0.0016(1) 0.0000(2) 0.0000(2)
Te11 Te1- 0.0059(1) 0.0024(1) 0.0048(1) 0.0016(1) 0.0000(2) 0.0000(2)
Te12 Te1- 0.0059(1) 0.0024(1) 0.0048(1) 0.0016(1) 0.0000(2) 0.0000(2)
Te13 Te1- 0.0059(1) 0.0024(1) 0.0048(1) 0.0016(1) 0.0000(2) 0.0000(2)
Te14 Te1- 0.0059(1) 0.0024(1) 0.0048(1) 0.0016(1) 0.0000(2) 0.0000(2)
Te15 Te1- 0.0059(1) 0.0024(1) 0.0048(1) 0.0016(1) 0.0000(2) 0.0000(2)
Te16 Te1- 0.0059(1) 0.0024(1) 0.0048(1) 0.0016(1) 0.0000(2) 0.0000(2)
Te17 Te1- 0.0059(1) 0.0024(1) 0.0048(1) 0.0016(1) 0.0000(2) 0.0000(2)
Te18 Te1- 0.0059(1) 0.0024(1) 0.0048(1) 0.0016(1) 0.0000(2) 0.0000(2)
Te19 Te1- 0.0059(1) 0.0024(1) 0.0048(1) 0.0016(1) 0.0000(2) 0.0000(2)
Te20 Te1- 0.0059(1) 0.0024(1) 0.0048(1) 0.0016(1) 0.0000(2) 0.0000(2)
Te21 Te1- 0.0059(1) 0.0024(1) 0.0048(1) 0.0016(1) 0.0000(2) 0.0000(2)
Te22 Te1- 0.0059(1) 0.0024(1) 0.0048(1) 0.0016(1) 0.0000(2) 0.0000(2)
Te23 Te1- 0.0059(1) 0.0024(1) 0.0048(1) 0.0016(1) 0.0000(2) 0.0000(2)
Te24 Te1- 0.0059(1) 0.0024(1) 0.0048(1) 0.0016(1) 0.0000(2) 0.0000(2)
#End of TTdata_75320-ICSD