
#(C) 2017 by FIZ Karlsruhe - Leibniz Institute for Information Infrastructure.  All rights reserved.
data_415303-ICSD
_database_code_ICSD 415303
_audit_creation_date 2006-10-01
_chemical_name_systematic 'Ruthenium oxide - phase I'
_chemical_formula_structural 'Ru O4'
_chemical_formula_sum 'O4 Ru1'
_chemical_name_structure_type OsF2O2
_exptl_crystal_density_diffrn 3.56
_cell_measurement_temperature 170.
_publ_section_title 'Two crystalline modifications of Ru O4'
loop_
_citation_id
_citation_journal_full
_citation_year
_citation_journal_volume
_citation_page_first
_citation_page_last
_citation_journal_id_ASTM
primary 'Journal of Solid State Chemistry' 2005 178 3206 3209 JSSCBI
loop_
_publ_author_name
'Pley, M.'
'Wickleder, M.S.'
_cell_length_a 8.5092(10)
_cell_length_b 8.5092(10)
_cell_length_c 8.5092(10)
_cell_angle_alpha 90.
_cell_angle_beta 90.
_cell_angle_gamma 90.
_cell_volume 616.12
_cell_formula_units_Z 8
_symmetry_space_group_name_H-M 'P -4 3 n'
_symmetry_Int_Tables_number 218
_refine_ls_R_factor_all 0.0345
loop_
_symmetry_equiv_pos_site_id
_symmetry_equiv_pos_as_xyz
1 '-z+1/2, y+1/2, -x+1/2'
2 '-y+1/2, x+1/2, -z+1/2'
3 '-x+1/2, z+1/2, -y+1/2'
4 'z+1/2, -y+1/2, -x+1/2'
5 'y+1/2, -x+1/2, -z+1/2'
6 'x+1/2, -z+1/2, -y+1/2'
7 '-z+1/2, -y+1/2, x+1/2'
8 '-y+1/2, -x+1/2, z+1/2'
9 '-x+1/2, -z+1/2, y+1/2'
10 'z+1/2, y+1/2, x+1/2'
11 'y+1/2, x+1/2, z+1/2'
12 'x+1/2, z+1/2, y+1/2'
13 '-z, -x, y'
14 '-y, -z, x'
15 '-x, -y, z'
16 'z, -x, -y'
17 'y, -z, -x'
18 'x, -y, -z'
19 '-z, x, -y'
20 '-y, z, -x'
21 '-x, y, -z'
22 'z, x, y'
23 'y, z, x'
24 'x, y, z'
loop_
_atom_type_symbol
_atom_type_oxidation_number
Ru8+ 8
O2- -2
loop_
_atom_site_label
_atom_site_type_symbol
_atom_site_symmetry_multiplicity
_atom_site_Wyckoff_symbol
_atom_site_fract_x
_atom_site_fract_y
_atom_site_fract_z
_atom_site_B_iso_or_equiv
_atom_site_occupancy
_atom_site_attached_hydrogens
Ru1 Ru8+ 2 a 1. 1. 1. 0.0197(4) 1 0
Ru2 Ru8+ 6 c 0.75 0.5 1. 0.0194(3) 1 0
O1 O2- 24 i 0.8647(5) 0.3887(6) 0.8809(4) 0.0225(9) 1 0
O2 O2- 8 e 0.8850(9) 0.8850(9) 0.8850(9) 0.049(3) 1 0
loop_
_atom_site_aniso_label
_atom_site_aniso_type_symbol
_atom_site_aniso_U_11
_atom_site_aniso_U_22
_atom_site_aniso_U_33
_atom_site_aniso_U_12
_atom_site_aniso_U_13
_atom_site_aniso_U_23
Ru1 Ru8+ 0.0197(4) 0.0197(4) 0.0197(4) 0. 0. 0.
Ru2 Ru8+ 0.0177(4) 0.0202(3) 0.0202(3) 0. 0. 0.
O1 O2- 0.032(2) 0.021(2) 0.014(2) -0.003(2) 0.0003(17) -0.0087(16)
O2 O2- 0.049(3) 0.049(3) 0.049(3) 0.000(3) 0.000(3) 0.000(3)
#End of TTdata_415303-ICSD