
#(C) 2018 by FIZ Karlsruhe - Leibniz Institute for Information Infrastructure.  All rights reserved.
data_35190-ICSD
_database_code_ICSD 35190
_audit_creation_date 1982-12-31
_audit_update_record 2004-04-01
_chemical_name_systematic 'Tantalum tantalum(IV) iodide octaselenide'
_chemical_formula_structural 'Ta2 I Se8'
_chemical_formula_sum 'I1 Se8 Ta2'
_exptl_crystal_density_diffrn 6.39
_publ_section_title
'Preparation and structure of ditantalum iodide octaselenide, Ta2 I Se8'
loop_
_citation_id
_citation_journal_full
_citation_year
_citation_journal_volume
_citation_page_first
_citation_page_last
_citation_journal_id_ASTM
primary

;
Acta Crystallographica, Section B: Structural Crystallography and Crystal
Chemistry
; 1982 38 2877 2879 ACBCAR
loop_
_publ_author_name
'Gressier, P.'
'Guemas, L.'
'Meerschaut, A.'
_cell_length_a 9.531(1)
_cell_length_b 9.531(1)
_cell_length_c 12.824(6)
_cell_angle_alpha 90.
_cell_angle_beta 90.
_cell_angle_gamma 90.
_cell_volume 1164.93
_cell_formula_units_Z 4
_symmetry_space_group_name_H-M 'I 4 2 2'
_symmetry_Int_Tables_number 97
_refine_ls_R_factor_all 0.057
loop_
_symmetry_equiv_pos_site_id
_symmetry_equiv_pos_as_xyz
1 '-y, x, z'
2 'y, -x, z'
3 '-y, -x, -z'
4 'y, x, -z'
5 'x, -y, -z'
6 '-x, y, -z'
7 '-x, -y, z'
8 'x, y, z'
9 '-y+1/2, x+1/2, z+1/2'
10 'y+1/2, -x+1/2, z+1/2'
11 '-y+1/2, -x+1/2, -z+1/2'
12 'y+1/2, x+1/2, -z+1/2'
13 'x+1/2, -y+1/2, -z+1/2'
14 '-x+1/2, y+1/2, -z+1/2'
15 '-x+1/2, -y+1/2, z+1/2'
16 'x+1/2, y+1/2, z+1/2'
loop_
_atom_type_symbol
_atom_type_oxidation_number
Ta4+ 4.5
I1- -1
Se1- -1
loop_
_atom_site_label
_atom_site_type_symbol
_atom_site_symmetry_multiplicity
_atom_site_Wyckoff_symbol
_atom_site_fract_x
_atom_site_fract_y
_atom_site_fract_z
_atom_site_B_iso_or_equiv
_atom_site_occupancy
_atom_site_attached_hydrogens
Ta1 Ta4+ 4 c 0 0.5 0 . 1. 0
Ta2 Ta4+ 4 d 0 0.5 0.25 . 1. 0
I1 I1- 4 e 0 0 0.1553(3) . 1. 0
Se1 Se1- 16 k 0.1212(2) 0.3120(2) 0.8809(2) . 1. 0
Se2 Se1- 16 k 0.2160(2) 0.5449(2) 0.8693(2) . 1. 0
loop_
_atom_site_aniso_label
_atom_site_aniso_type_symbol
_atom_site_aniso_U_11
_atom_site_aniso_U_22
_atom_site_aniso_U_33
_atom_site_aniso_U_12
_atom_site_aniso_U_13
_atom_site_aniso_U_23
Ta1 Ta4+ 0.0078(4) 0.0112(4) 0.0204(5) 0 0 0
Ta2 Ta4+ 0.0150(5) 0.0150(5) 0.0174(5) 0.0000(9) 0 0
I1 I1- 0.036(2) 0.036(2) 0.046(2) 0 0 0
Se1 Se1- 0.0162(6) 0.0166(6) 0.0193(7) 0.0011(5) -.0015(10) -.001(1)
Se2 Se1- 0.0152(6) 0.0189(6) 0.0192(7) -.0009(5) 0.0005(10) -.0015(10)
#End of TTdata_35190-ICSD