
#(C) 2017 by FIZ Karlsruhe - Leibniz Institute for Information Infrastructure.  All rights reserved.
data_180902-ICSD
_database_code_ICSD 180902
_audit_creation_date 2011-08-01
_chemical_name_systematic 'Silicon dioxide - alpha cristobalite'
_chemical_formula_structural 'Si O2'
_chemical_formula_sum 'O2 Si1'
_chemical_name_structure_type Cristobalite(alpha)
_chemical_name_mineral 'Cristobalite alpha'
_exptl_crystal_density_diffrn 3.
_cell_measurement_pressure 7300000.
_publ_section_title 'New insights into the high-pressure polymorphism of Si O2'
loop_
_citation_id
_citation_journal_full
_citation_year
_citation_journal_volume
_citation_page_first
_citation_page_last
_citation_journal_id_ASTM
primary 'Physics and Chemistry of Minerals' 2011 38 517 529 PCMIDU
loop_
_publ_author_name
'Dera, P.'
'Lazarz, J.D.'
'Prakapenka, V.B.'
'Barkley, M.'
'Downs, R.T.'
_cell_length_a 4.632(2)
_cell_length_b 4.632(2)
_cell_length_c 6.209(4)
_cell_angle_alpha 90.
_cell_angle_beta 90.
_cell_angle_gamma 90.
_cell_volume 133.22
_cell_formula_units_Z 4
_symmetry_space_group_name_H-M 'P 41 21 2'
_symmetry_Int_Tables_number 92
_refine_ls_R_factor_all 0.082
loop_
_symmetry_equiv_pos_site_id
_symmetry_equiv_pos_as_xyz
1 'x+1/2, -y+1/2, -z+3/4'
2 '-x+1/2, y+1/2, -z+1/4'
3 '-y, -x, -z+1/2'
4 'y, x, -z'
5 'y+1/2, -x+1/2, z+3/4'
6 '-y+1/2, x+1/2, z+1/4'
7 '-x, -y, z+1/2'
8 'x, y, z'
loop_
_atom_type_symbol
_atom_type_oxidation_number
Si4+ 4
O2- -2
loop_
_atom_site_label
_atom_site_type_symbol
_atom_site_symmetry_multiplicity
_atom_site_Wyckoff_symbol
_atom_site_fract_x
_atom_site_fract_y
_atom_site_fract_z
_atom_site_B_iso_or_equiv
_atom_site_occupancy
_atom_site_attached_hydrogens
Si1 Si4+ 4 a 0.3353(20) 0.3353(20) 0 0.007(6) 1. 0
O1 O2- 8 b 0.2276(80) 0.1768(60) 0.2228(30) 0.008(8) 1. 0
#End of TTdata_180902-ICSD