
#(C) 2018 by FIZ Karlsruhe - Leibniz Institute for Information Infrastructure.  All rights reserved.
data_99208-ICSD
_database_code_ICSD 99208
_audit_creation_date 2005-04-01
_audit_update_record 2006-10-01
_chemical_name_systematic 'Magnesium nickel tin (11.92/2.32/1.76) - Y'
_chemical_formula_structural 'Mg11.92 Ni2.32 Sn1.76'
_chemical_formula_sum 'Mg11.92 Ni2.32 Sn1.76'
_exptl_crystal_density_diffrn 3.16
_publ_section_title 'The structure of the Y-phase in the Mg - Ni - Sn system'
loop_
_citation_id
_citation_journal_full
_citation_year
_citation_journal_volume
_citation_page_first
_citation_page_last
_citation_journal_id_ASTM
primary 'Journal of Alloys and Compounds' 2004 372 121 128 JALCEU
loop_
_publ_author_name
'Boudard, M.'
'Bordet, P.'
'Vincent, H.'
'Audebert, F.'
_cell_length_a 9.851(2)
_cell_length_b 9.851(2)
_cell_length_c 6.868(2)
_cell_angle_alpha 90.
_cell_angle_beta 90.
_cell_angle_gamma 90.
_cell_volume 666.49
_cell_formula_units_Z 2
_symmetry_space_group_name_H-M 'P 42 c m'
_symmetry_Int_Tables_number 101
_refine_ls_R_factor_all 0.04
loop_
_symmetry_equiv_pos_site_id
_symmetry_equiv_pos_as_xyz
1 'y, x, z'
2 '-y, -x, z'
3 '-x, y, z+1/2'
4 'x, -y, z+1/2'
5 'y, -x, z+1/2'
6 '-y, x, z+1/2'
7 '-x, -y, z'
8 'x, y, z'
loop_
_atom_type_symbol
_atom_type_oxidation_number
Sn0+ 0
Mg0+ 0
Ni0+ 0
Mg0+ 0
Ni0+ 0
Mg0+ 0
Ni0+ 0
Mg0+ 0
loop_
_atom_site_label
_atom_site_type_symbol
_atom_site_symmetry_multiplicity
_atom_site_Wyckoff_symbol
_atom_site_fract_x
_atom_site_fract_y
_atom_site_fract_z
_atom_site_B_iso_or_equiv
_atom_site_occupancy
_atom_site_attached_hydrogens
Sn1 Sn0+ 4 d 0.17136(4) 0.17136(4) 0.33355(5) 0.0122(1) 0.88 0
Mg1 Mg0+ 4 d 0.17136(4) 0.17136(4) 0.33355(5) 0.0122(1) 0.12 0
Ni1 Ni0+ 4 d 0.30926(6) 0.30926(6) 0.0644(1) 0.0105(1) 1. 0
Mg2 Mg0+ 2 b 0.5 0.5 0.1038(6) 0.0244(7) 0.88 0
Ni2 Ni0+ 2 b 0.5 0.5 0.1038(6) 0.0244(7) 0.12 0
Mg3 Mg0+ 8 e 0.2384(2) 0.4756(2) 0.3471(4) 0.0243(4) 0.95 0
Ni3 Ni0+ 8 e 0.2384(2) 0.4756(2) 0.3471(4) 0.0243(4) 0.05 0
Mg4 Mg0+ 8 e 0.0352(2) 0.3449(2) 0.0449(3) 0.0259(5) 1. 0
Mg5 Mg0+ 2 a 0 0 0.073(1) 0.045(1) 1. 0
Mg6 Mg0+ 4 d 0.2254(3) 0.2254(3) 0.7328(5) 0.046(1) 1. 0
loop_
_atom_site_aniso_label
_atom_site_aniso_type_symbol
_atom_site_aniso_U_11
_atom_site_aniso_U_22
_atom_site_aniso_U_33
_atom_site_aniso_U_12
_atom_site_aniso_U_13
_atom_site_aniso_U_23
Sn1 Sn0+ .0130(1) .0130(1) .0107(2) .0005(2) .0015(2) .0015(2)
Mg1 Mg0+ .0130(1) .0130(1) .0107(2) .0005(2) .0015(2) .0015(2)
Ni1 Ni0+ .0104(2) .0104(2) .0107(3) .0002(3) -.0010(2) -.0010(2)
Mg2 Mg0+ .0227(9) .0227(9) .027(2) -.007(1) 0. 0.
Ni2 Ni0+ .0227(9) .0227(9) .027(2) -.007(1) 0. 0.
Mg3 Mg0+ .0192(8) .0251(9) .028(1) .0011(6) .002(1) -.011(1)
Ni3 Ni0+ .0192(8) .0251(9) .028(1) .0011(6) .002(1) -.011(1)
Mg4 Mg0+ .0143(9) .028(1) .035(1) -.0047(8) -.0027(8) .0071(9)
Mg5 Mg0+ .048(1) .048(1) .040(2) -.006(3) 0. 0.
Mg6 Mg0+ .049(1) .049(1) .038(2) .032(2) -.031(1) -.031(1)
#End of TTdata_99208-ICSD