
#(C) 2017 by FIZ Karlsruhe - Leibniz Institute for Information Infrastructure.  All rights reserved.
data_60512-ICSD
_database_code_ICSD 60512
_audit_creation_date 1986-12-03
_audit_update_record 2012-08-01
_chemical_name_systematic 'Vanadium deuteride (2/1)'
_chemical_formula_structural 'V2 D'
_chemical_formula_sum 'D1 V2'
_chemical_name_structure_type V2Hx-frame
_exptl_crystal_density_diffrn 5.78
_publ_section_title

;
X-ray structure determination of divanadium hydride, beta1-V2 H, and
divanadium deuteride, beta-V2 D
;
loop_
_citation_id
_citation_journal_full
_citation_year
_citation_journal_volume
_citation_page_first
_citation_page_last
_citation_journal_id_ASTM
primary 'Acta Crystallographica, Section C: Crystal Structure Communications'
1985 41 1566 1571 ACSCEE
loop_
_publ_author_name
'Noda, Y.'
'Kajitani, T.'
'Hirabayashi, M.'
'Sato, S.'
_cell_length_a 4.4554(7)
_cell_length_b 3.0090(3)
_cell_length_c 4.4719(7)
_cell_angle_alpha 90.
_cell_angle_beta 95.30(1)
_cell_angle_gamma 90.
_cell_volume 59.7
_cell_formula_units_Z 2
_symmetry_space_group_name_H-M 'C 1 m 1'
_symmetry_Int_Tables_number 8
_refine_ls_R_factor_all 0.024
loop_
_symmetry_equiv_pos_site_id
_symmetry_equiv_pos_as_xyz
1 'x, -y, z'
2 'x, y, z'
3 'x+1/2, -y+1/2, z'
4 'x+1/2, y+1/2, z'
loop_
_atom_type_symbol
_atom_type_oxidation_number
V0+ 0.5
D1- -1
loop_
_atom_site_label
_atom_site_type_symbol
_atom_site_symmetry_multiplicity
_atom_site_Wyckoff_symbol
_atom_site_fract_x
_atom_site_fract_y
_atom_site_fract_z
_atom_site_B_iso_or_equiv
_atom_site_occupancy
_atom_site_attached_hydrogens
V1 V0+ 2 a 0.28057(6) 0 0.21775(7) . 1. 0
V2 V0+ 2 a 0.75 0 0.75 . 1. 0
D1 D1- 2 a 0 0 0.5 . 1. 0
loop_
_atom_site_aniso_label
_atom_site_aniso_type_symbol
_atom_site_aniso_U_11
_atom_site_aniso_U_22
_atom_site_aniso_U_33
_atom_site_aniso_U_12
_atom_site_aniso_U_13
_atom_site_aniso_U_23
V1 V0+ 0.00516(11) 0.00515(8) 0.00556(19) 0 0.00029(9) 0
V2 V0+ 0.00682(16) 0.00618(1) 0.00617(23) 0 0.00071(11) 0
D1 D1- 0.022 0.035 0.015 0 0.002 0
#End of TTdata_60512-ICSD