
#(C) 2017 by FIZ Karlsruhe - Leibniz Institute for Information Infrastructure.  All rights reserved.
data_94500-ICSD
_database_code_ICSD 94500
_audit_creation_date 2003-10-01
_chemical_name_systematic 'Carbon (60) - Li-doped'
_chemical_formula_structural C60
_chemical_formula_sum C60
_exptl_crystal_density_diffrn 1.81
_publ_section_title

;
Phase transitions and the structure of the C60 crystal doped with lithium by
electrodiffusion
;
loop_
_citation_id
_citation_journal_full
_citation_year
_citation_journal_volume
_citation_page_first
_citation_page_last
_citation_journal_id_ASTM
primary 'Zhurnal Eksperimental'noi i Teoreticheskoi Fiziki' 2001 93 1430 1437
ZETFA7
loop_
_publ_author_name
'Dilanyan, R.A.'
'Khasanov, S.S.'
'Bredikhin, S.I.'
'Gurov, A.F.'
'Kveder, V.V.'
'Osip'yan, Yu.A.'
'Shalynin, A.I.'
_cell_length_a 14.745(2)
_cell_length_b 9.843(2)
_cell_length_c 9.092(1)
_cell_angle_alpha 90
_cell_angle_beta 90
_cell_angle_gamma 90
_cell_volume 1319.57
_cell_formula_units_Z 2
_symmetry_space_group_name_H-M 'P n n m'
_symmetry_Int_Tables_number 58
_refine_ls_R_factor_all 0.0079
loop_
_symmetry_equiv_pos_site_id
_symmetry_equiv_pos_as_xyz
1 'x+1/2, -y+1/2, z+1/2'
2 '-x+1/2, y+1/2, z+1/2'
3 'x, y, -z'
4 '-x, -y, -z'
5 '-x+1/2, y+1/2, -z+1/2'
6 'x+1/2, -y+1/2, -z+1/2'
7 '-x, -y, z'
8 'x, y, z'
loop_
_atom_type_symbol
_atom_type_oxidation_number
C0+ 0
loop_
_atom_site_label
_atom_site_type_symbol
_atom_site_symmetry_multiplicity
_atom_site_Wyckoff_symbol
_atom_site_fract_x
_atom_site_fract_y
_atom_site_fract_z
_atom_site_B_iso_or_equiv
_atom_site_occupancy
_atom_site_attached_hydrogens
C1 C0+ 4 g 0.2276 0.8847 0 2.42(5) 1. 0
C2 C0+ 8 h 0.1178 0.3056 0.085(1) 2.42(5) 1. 0
C3 C0+ 8 h 0.0408 -0.0353 0.409(1) 2.42(5) 1. 0
C4 C0+ 8 h 0.2234 0.1103 0.078(1) 2.42(5) 1. 0
C5 C0+ 8 h 0.1208 0.1664 0.288(1) 2.42(5) 1. 0
C6 C0+ 8 h 0.1765 0.3218 0.254(1) 2.42(5) 1. 0
C7 C0+ 8 h 0.226 -0.0293 0.132(1) 2.42(5) 1. 0
C8 C0+ 8 h 0.1713 0.2073 0.157(1) 2.42(5) 1. 0
C9 C0+ 8 h 0.1228 0.0307 0.329(1) 2.42(5) 1. 0
C10 C0+ 4 g 0.8195 0.2376 0 2.42(5) 1. 0
C11 C0+ 8 h -0.0479 0.3449 0.081(1) 2.42(5) 1. 0
C12 C0+ 8 h 0.0358 0.2399 0.283(1) 2.42(5) 1. 0
C13 C0+ 8 h 0.8725 0.195 0.265(1) 2.42(5) 1. 0
C14 C0+ 8 h 0.8701 0.2785 0.133(1) 2.42(5) 1. 0
C15 C0+ 8 h 0.0342 0.3258 0.164(1) 2.42(5) 1. 0
C16 C0+ 8 h -0.0436 0.1746 0.336(1) 2.42(5) 1. 0
#End of TTdata_94500-ICSD