
#(C) 2018 by FIZ Karlsruhe - Leibniz Institute for Information Infrastructure.  All rights reserved.
data_248732-ICSD
_database_code_ICSD 248732
_audit_creation_date 2015-02-01
_chemical_name_systematic
'Potassium iron magnesium aluminium silicon oxide (0.12/2.3/1.7/8.1/9.9/36)'
_chemical_formula_structural
'K0.12 Fe2 (Mg0.85 Fe0.15)2 Al3 (Si0.5 Al0.5)3 (Si0.7 Al0.3)12 O36'
_chemical_formula_sum 'Al8.1 Fe2.3 K0.12 Mg1.7 O36 Si9.9'
_chemical_name_mineral Indialite
_exptl_crystal_density_diffrn 2.63
_publ_section_title

;
Ordered structure of the Fe-analogue of indialite - the first mineral with
space group P622
;
loop_
_citation_id
_citation_journal_full
_citation_year
_citation_journal_volume
_citation_page_first
_citation_page_last
_citation_journal_id_ASTM
primary 'Doklady Chemistry' 2014 455 62 64 DKCHAY
loop_
_publ_author_name
'Rastsvetaeva, R.K.'
_cell_length_a 9.8759(3)
_cell_length_b 9.8759(3)
_cell_length_c 9.3102(3)
_cell_angle_alpha 90.
_cell_angle_beta 90.
_cell_angle_gamma 120.
_cell_volume 786.4
_cell_formula_units_Z 1
_symmetry_space_group_name_H-M 'P 6 2 2'
_symmetry_Int_Tables_number 177
_refine_ls_R_factor_all 0.059
loop_
_symmetry_equiv_pos_site_id
_symmetry_equiv_pos_as_xyz
1 'x, x-y, -z'
2 '-x+y, y, -z'
3 '-y, -x, -z'
4 '-x, -x+y, -z'
5 'x-y, -y, -z'
6 'y, x, -z'
7 'x-y, x, z'
8 'y, -x+y, z'
9 '-x, -y, z'
10 '-x+y, -x, z'
11 '-y, x-y, z'
12 'x, y, z'
loop_
_atom_type_symbol
_atom_type_oxidation_number
Fe3+ 3
Mg2+ 2
Fe2+ 2
Al3+ 3
Si4+ 4
Al3+ 3
K1+ 1
O2- -2
loop_
_atom_site_label
_atom_site_type_symbol
_atom_site_symmetry_multiplicity
_atom_site_Wyckoff_symbol
_atom_site_fract_x
_atom_site_fract_y
_atom_site_fract_z
_atom_site_B_iso_or_equiv
_atom_site_occupancy
_atom_site_attached_hydrogens
Fe1 Fe3+ 2 c 0.6667 0.3333 0 1.02(5) 1. 0
Mg1 Mg2+ 2 d 0.6667 0.3333 0.5 0.74(4) 0.85 0
Fe2 Fe2+ 2 d 0.6667 0.3333 0.5 0.74(4) 0.15 0
Al1 Al3+ 3 f 0.5 0 0 1.04(8) 1. 0
Al2 Al3+ 3 g 0 0.5 0.5 1.02(7) 0.5 0
Al3 Al3+ 3 g 0 0.5 0.5 1.02(7) 0.5 0
Si1 Si4+ 12 n 0.3702(1) 0.2658(1) 0.2540(1) 1.18(4) 0.7 0
Al4 Al3+ 12 n 0.3702(1) 0.2658(1) 0.2540(1) 1.18(4) 0.3 0
K1 K1+ 2 e 0 0 0.2728(4) 1.8(4) 0.06(1) 0
O1 O2- 12 n 0.6591(4) 0.1339(4) 0.1023(3) 1.56(9) 1. 0
O2 O2- 12 n 0.6435(3) 0.1312(3) 0.3934(2) 1.12(9) 1. 0
O3 O2- 12 n 0.3109(5) 0.0799(4) 0.2415(4) 2.30(9) 1. 0
#End of TTdata_248732-ICSD