
#(C) 2017 by FIZ Karlsruhe - Leibniz Institute for Information Infrastructure.  All rights reserved.
data_168757-ICSD
_database_code_ICSD 168757
_audit_creation_date 2011-02-01
_audit_update_record 2013-08-01
_chemical_name_systematic 'Calcium - VI'
_chemical_formula_structural Ca
_chemical_formula_sum Ca1
_exptl_crystal_density_diffrn 6.69
_cell_measurement_temperature 293.
_cell_measurement_pressure 172000000.
_publ_section_title 'Ca-VI: a high-pressure phase of calcium above 158 GPa'
loop_
_citation_id
_citation_journal_full
_citation_year
_citation_journal_volume
_citation_page_first
_citation_page_last
_citation_journal_id_ASTM
primary 'Physical Review, Serie 3. B - Condensed Matter (18,1978-)' 2010 81
140106-1 140106-4 PRBMDO
loop_
_publ_author_name
'Nakamoto, Y.'
'Sakata, M.'
'Shimizu, K.'
'Fujihisa, H.'
'Matsuoka, T.'
'Ohishi, Y.'
'Kikegawa, T.'
_cell_length_a 4.276(1)
_cell_length_b 3.229(1)
_cell_length_c 2.881(1)
_cell_angle_alpha 90.
_cell_angle_beta 90.
_cell_angle_gamma 90.
_cell_volume 39.78
_cell_formula_units_Z 4
_symmetry_space_group_name_H-M 'P n 21 a'
_symmetry_Int_Tables_number 33
_refine_ls_R_factor_all 0.0078
loop_
_symmetry_equiv_pos_site_id
_symmetry_equiv_pos_as_xyz
1 'x+1/2, y, -z+1/2'
2 '-x+1/2, y+1/2, z+1/2'
3 '-x, y+1/2, -z'
4 'x, y, z'
loop_
_atom_type_symbol
_atom_type_oxidation_number
Ca0+ 0
loop_
_atom_site_label
_atom_site_type_symbol
_atom_site_symmetry_multiplicity
_atom_site_Wyckoff_symbol
_atom_site_fract_x
_atom_site_fract_y
_atom_site_fract_z
_atom_site_B_iso_or_equiv
_atom_site_occupancy
_atom_site_attached_hydrogens
Ca1 Ca0+ 4 a 0.1704(2) 0.25 0.1148(6) . 1. 0
#End of TTdata_168757-ICSD