
#(C) 2017 by FIZ Karlsruhe - Leibniz Institute for Information Infrastructure.  All rights reserved.
data_87566-ICSD
_database_code_ICSD 87566
_audit_creation_date 2000-12-16
_audit_update_record 2012-02-01
_chemical_name_systematic 'Silicon oxide (24/48)'
_chemical_formula_structural 'Si24 O48'
_chemical_formula_sum 'O48 Si24'
_chemical_name_structure_type Si24O48
_chemical_name_mineral 'Zeolite RUB-3 (calcined)'
_exptl_crystal_density_diffrn 1.73
_publ_section_title

;
Structure refinement of the as-synthesized and the calcined form of zeolite
RUB-3 (RTE)
;
loop_
_citation_id
_citation_journal_full
_citation_year
_citation_journal_volume
_citation_page_first
_citation_page_last
_citation_journal_id_ASTM
primary 'Microporous and Mesoporous Materials' 1998 26 49 59 MIMMFJ
loop_
_publ_author_name
'Marler, B.'
'Gruenewald-Lueke, A.'
'Gies, H.'
_cell_length_a 14.018(1)
_cell_length_b 13.612(1)
_cell_length_c 7.418(1)
_cell_angle_alpha 90.
_cell_angle_beta 102.12(1)
_cell_angle_gamma 90.
_cell_volume 1383.9
_cell_formula_units_Z 1
_symmetry_space_group_name_H-M 'C 1 2/m 1'
_symmetry_Int_Tables_number 12
_refine_ls_R_factor_all 0.043
loop_
_symmetry_equiv_pos_site_id
_symmetry_equiv_pos_as_xyz
1 '-x, y, -z'
2 '-x, -y, -z'
3 'x, -y, z'
4 'x, y, z'
5 '-x+1/2, y+1/2, -z'
6 '-x+1/2, -y+1/2, -z'
7 'x+1/2, -y+1/2, z'
8 'x+1/2, y+1/2, z'
loop_
_atom_type_symbol
_atom_type_oxidation_number
Si4+ 4
O2- -2
loop_
_atom_site_label
_atom_site_type_symbol
_atom_site_symmetry_multiplicity
_atom_site_Wyckoff_symbol
_atom_site_fract_x
_atom_site_fract_y
_atom_site_fract_z
_atom_site_B_iso_or_equiv
_atom_site_occupancy
_atom_site_attached_hydrogens
Si1 Si4+ 8 j 0.6028(4) 0.1159(5) 0.4533(9) 0.011(3) 1. 0
Si2 Si4+ 8 j 0.7303(5) 0.1124(4) 0.8432(9) 0.011(3) 1. 0
Si3 Si4+ 8 j 0.6108(5) 0.2218(5) 0.0855(10) 0.011(3) 1. 0
O1 O2- 4 h 0.5 0.1470(11) 0.5 0.013(7) 1. 0
O2 O2- 4 i 0.5978(13) 0 0.3924(21) 0.013(7) 1. 0
O3 O2- 8 j 0.6887(8) 0.1306(8) 0.6262(13) 0.013(7) 1. 0
O4 O2- 8 j 0.6256(9) 0.1780(8) 0.2878(14) 0.013(7) 1. 0
O5 O2- 4 i 0.7598(11) 0 0.8829(22) 0.013(7) 1. 0
O6 O2- 8 j 0.8297(8) 0.1768(7) 0.9050(18) 0.013(7) 1. 0
O7 O2- 8 j 0.6506(8) 0.1432(8) 0.9615(16) 0.013(7) 1. 0
O8 O2- 4 g 0.5 0.2447(13) 0 0.032(3) 1. 0
#End of TTdata_87566-ICSD