
#(C) 2017 by FIZ Karlsruhe - Leibniz Institute for Information Infrastructure.  All rights reserved.
data_20946-ICSD
_database_code_ICSD 20946
_audit_creation_date 1985-07-16
_audit_update_record 2012-08-01
_chemical_name_systematic 'Boron nitride'
_chemical_formula_structural 'B N'
_chemical_formula_sum 'B1 N1'
_exptl_crystal_density_diffrn 4.54
_publ_section_title 'Metastable structures of graphite-like boron nitride'
loop_
_citation_id
_citation_journal_full
_citation_year
_citation_journal_volume
_citation_page_first
_citation_page_last
_citation_journal_id_ASTM
primary Kristallografiya 1984 29 792 793 KRISAJ
loop_
_publ_author_name
'Kurdyumov, A.V.'
'Oleinik, G.S.'
_cell_length_a 2.50(1)
_cell_length_b 4.34(1)
_cell_length_c 3.35(2)
_cell_angle_alpha 90.
_cell_angle_beta 90.
_cell_angle_gamma 90.
_cell_volume 36.35
_cell_formula_units_Z 4
_symmetry_space_group_name_H-M 'F m 2 m'
_symmetry_Int_Tables_number 42
loop_
_symmetry_equiv_pos_site_id
_symmetry_equiv_pos_as_xyz
1 'x, y, -z'
2 '-x, y, z'
3 '-x, y, -z'
4 'x, y, z'
5 'x, y+1/2, -z+1/2'
6 '-x, y+1/2, z+1/2'
7 '-x, y+1/2, -z+1/2'
8 'x, y+1/2, z+1/2'
9 'x+1/2, y, -z+1/2'
10 '-x+1/2, y, z+1/2'
11 '-x+1/2, y, -z+1/2'
12 'x+1/2, y, z+1/2'
13 'x+1/2, y+1/2, -z'
14 '-x+1/2, y+1/2, z'
15 '-x+1/2, y+1/2, -z'
16 'x+1/2, y+1/2, z'
loop_
_atom_type_symbol
_atom_type_oxidation_number
B3+ 3
N3- -3
loop_
_atom_site_label
_atom_site_type_symbol
_atom_site_symmetry_multiplicity
_atom_site_Wyckoff_symbol
_atom_site_fract_x
_atom_site_fract_y
_atom_site_fract_z
_atom_site_B_iso_or_equiv
_atom_site_occupancy
_atom_site_attached_hydrogens
B1 B3+ 4 a 0 0 0 . 1. 0
N1 N3- 4 a 0.5 0.1667 0 . 1. 0
#End of TTdata_20946-ICSD