
#(C) 2017 by FIZ Karlsruhe - Leibniz Institute for Information Infrastructure.  All rights reserved.
data_202203-ICSD
_database_code_ICSD 202203
_audit_creation_date 1988-12-19
_audit_update_record 1997-05-13
_chemical_name_systematic 'Molybdenum oxide (8/23)'
_chemical_formula_structural 'Mo8 O23'
_chemical_formula_sum 'Mo8 O23'
_exptl_crystal_density_diffrn 4.32
_cell_measurement_temperature 100.
_publ_section_title
'Structure determination of low-dimensional conductor Mo8 O23'
loop_
_citation_id
_citation_journal_full
_citation_year
_citation_journal_volume
_citation_page_first
_citation_page_last
_citation_journal_id_ASTM
primary 'Journal of Solid State Chemistry' 1987 66 40 46 JSSCBI
loop_
_publ_author_name
'Fujishita, H.'
'Sato, M.'
'Sato, S.'
'Hoshino, S.'
_cell_length_a 13.39(1)
_cell_length_b 8.062(3)
_cell_length_c 16.820(10)
_cell_angle_alpha 90.
_cell_angle_beta 106.02(6)
_cell_angle_gamma 90.
_cell_volume 1745.21
_cell_formula_units_Z 4
_symmetry_space_group_name_H-M 'P 1 c 1'
_symmetry_Int_Tables_number 7
_refine_ls_R_factor_all 0.0358
loop_
_symmetry_equiv_pos_site_id
_symmetry_equiv_pos_as_xyz
1 'x, -y, z+1/2'
2 'x, y, z'
loop_
_atom_type_symbol
_atom_type_oxidation_number
Mo5+ 5.75
O2- -2
loop_
_atom_site_label
_atom_site_type_symbol
_atom_site_symmetry_multiplicity
_atom_site_Wyckoff_symbol
_atom_site_fract_x
_atom_site_fract_y
_atom_site_fract_z
_atom_site_B_iso_or_equiv
_atom_site_occupancy
_atom_site_attached_hydrogens
Mo1 Mo5+ 2 a 0.0612(20) 0.2916(3) 0.4188(12) 0.19(5) 1. 0
Mo2 Mo5+ 2 a 0.9348(20) 0.2923(4) 0.0817(12) 0.24(5) 1. 0
Mo3 Mo5+ 2 a 0.0649(20) 0.7928(3) 0.4170(12) 0.25(5) 1. 0
Mo4 Mo5+ 2 a 0.9325(20) 0.7935(3) 0.0847(12) 0.24(5) 1. 0
Mo5 Mo5+ 2 a 0.1842(20) 0.2087(3) 0.2479(12) 0.13(5) 1. 0
Mo6 Mo5+ 2 a 0.8176(20) 0.2060(3) 0.2543(12) 0.33(5) 1. 0
Mo7 Mo5+ 2 a 0.1862(20) 0.7070(3) 0.2448(12) 0.22(5) 1. 0
Mo8 Mo5+ 2 a 0.8156(20) 0.7049(3) 0.2563(12) 0.29(5) 1. 0
Mo9 Mo5+ 2 a 0.3154(20) 0.2899(3) 0.0796(12) 0.12(5) 1. 0
Mo10 Mo5+ 2 a 0.6851(20) 0.2954(3) 0.4187(12) 0.37(5) 1. 0
Mo11 Mo5+ 2 a 0.3156(20) 0.7936(3) 0.0774(12) 0.16(5) 1. 0
Mo12 Mo5+ 2 a 0.6845(20) 0.7997(3) 0.4210(12) 0.31(5) 1. 0
Mo13 Mo5+ 2 a 0.4472(20) 0.2043(3) 0.4015(12) 0.25(4) 1. 0
Mo14 Mo5+ 2 a 0.5537(20) 0.2060(3) 0.0970(12) 0.23(4) 1. 0
Mo15 Mo5+ 2 a 0.447(2) 0.7036(3) 0.4012(12) 0.27(4) 1. 0
Mo16 Mo5+ 2 a 0.5546(20) 0.7049(3) 0.0981(12) 0.23(4) 1. 0
O1 O2- 2 a 0.0779(24) -.0011(25) 0.4050(17) 0.5(4) 1. 0
O2 O2- 2 a 0.9272(24) 0.0012(29) 0.0891(17) 0.5(4) 1. 0
O3 O2- 2 a 0.0607(23) 0.4990(27) 0.4296(16) 0.5(4) 1. 0
O4 O2- 2 a 0.9514(23) 0.5048(27) 0.0783(16) 0.5(4) 1. 0
O5 O2- 2 a 0.1929(23) 0.4912(25) 0.2339(16) 0.5(4) 1. 0
O6 O2- 2 a 0.7976(23) 0.5040(26) 0.2613(16) 0.5(4) 1. 0
O7 O2- 2 a 0.1900(23) 0.9971(28) 0.2574(16) 0.5(4) 1. 0
O8 O2- 2 a 0.8216(23) 0.9960(27) 0.2478(17) 0.5(4) 1. 0
O9 O2- 2 a 0.3214(24) 0.0082(31) 0.0670(17) 0.4(4) 1. 0
O10 O2- 2 a 0.6813(24) 0.0060(31) 0.4303(18) 0.4(4) 1. 0
O11 O2- 2 a 0.3152(23) 0.500(3) 0.0882(16) 0.4(4) 1. 0
O12 O2- 2 a 0.6775(23) 0.5067(29) 0.4152(16) 0.4(4) 1. 0
O13 O2- 2 a 0.4436(23) 0.4978(24) 0.4074(16) 0.25(4) 1. 0
O14 O2- 2 a 0.5460(23) 0.4885(22) 0.0995(15) 0.25(4) 1. 0
O15 O2- 2 a 0.4521(23) 0.9891(22) 0.4152(15) 0.25(4) 1. 0
O16 O2- 2 a 0.5580(24) 0.9974(24) 0.0935(15) 0.25(4) 1. 0
O17 O2- 2 a -.0002 0.2505(15) -.0015 0.2(4) 1. 0
O18 O2- 2 a 0.0024(20) 0.7900(15) -.0015(12) 0.2(4) 1. 0
O19 O2- 2 a 0.0606(24) 0.2467(35) 0.1601(16) 0.3(4) 1. 0
O20 O2- 2 a 0.9328(23) 0.2429(32) 0.3282(15) 0.3(4) 1. 0
O21 O2- 2 a 0.0601(23) 0.7542(31) 0.1589(16) 0.3(4) 1. 0
O22 O2- 2 a 0.9327(23) 0.7428(34) 0.3317(17) 0.3(4) 1. 0
O23 O2- 2 a 0.1265(19) 0.2707(25) 0.3274(14) 0.25(4) 1. 0
O24 O2- 2 a 0.8668(25) 0.2776(25) 0.1659(17) 0.25(4) 1. 0
O25 O2- 2 a 0.1341(23) 0.7186(26) 0.3288(17) 0.25(4) 1. 0
O26 O2- 2 a 0.8756(19) 0.7193(23) 0.1692(15) 0.25(4) 1. 0
O27 O2- 2 a 0.2011(22) 0.2464(35) 0.4929(15) 0.3(4) 1. 0
O28 O2- 2 a 0.8006(23) 0.2582(29) -.0010(16) 0.3(4) 1. 0
O29 O2- 2 a 0.1943(24) 0.7351(25) 0.4921(16) 0.3(4) 1. 0
O30 O2- 2 a 0.7994(23) 0.7476(34) 0.0018(17) 0.3(4) 1. 0
O31 O2- 2 a 0.2593(21) 0.2437(27) 0.1578(14) 0.25(4) 1. 0
O32 O2- 2 a 0.7417(22) 0.2290(23) 0.3336(15) 0.25(4) 1. 0
O33 O2- 2 a 0.2579(24) 0.7718(24) 0.1605(17) 0.25(4) 1. 0
O34 O2- 2 a 0.7351(22) 0.7823(23) 0.3300(15) 0.25(4) 1. 0
O35 O2- 2 a 0.3226(27) 0.2545(29) 0.3243(16) 0.25(4) 1. 0
O36 O2- 2 a 0.6708(25) 0.2316(22) 0.1706(16) 0.25(4) 1. 0
O37 O2- 2 a 0.3225(24) 0.7445(30) 0.3215(15) 0.25(4) 1. 0
O38 O2- 2 a 0.6702(23) 0.7512(32) 0.1657(15) 0.25(4) 1. 0
O39 O2- 2 a 0.4085(26) 0.2580(32) 0.0033(16) 0.15(4) 1. 0
O40 O2- 2 a 0.5842(24) 0.2620(29) 0.4930(16) 0.15(4) 1. 0
O41 O2- 2 a 0.4024(23) 0.7451(29) -.0013(15) 0.15(4) 1. 0
O42 O2- 2 a 0.5864(25) 0.7398(28) 0.4904(15) 0.15(4) 1. 0
O43 O2- 2 a 0.4542(24) 0.2477(28) 0.1492(15) 0.15(4) 1. 0
O44 O2- 2 a 0.5416(26) 0.2337(25) 0.3391(16) 0.15(4) 1. 0
O45 O2- 2 a 0.4514(26) 0.7444(28) 0.1512(16) 0.15(4) 1. 0
O46 O2- 2 a 0.5319(24) 0.7539(27) 0.3435(17) 0.15(4) 1. 0
#End of TTdata_202203-ICSD