
#(C) 2017 by FIZ Karlsruhe - Leibniz Institute for Information Infrastructure.  All rights reserved.
data_44249-ICSD
_database_code_ICSD 44249
_audit_creation_date 2000-07-15
_audit_update_record 2017-08-01
_chemical_name_systematic 'Chromium boride (1/1)'
_chemical_formula_structural 'Cr B'
_chemical_formula_sum 'B1 Cr1'
_chemical_name_structure_type CrB
_exptl_crystal_density_diffrn 6.06
_publ_section_title

;
Structural investigation of Cr2B3, Cr3B4, and CrB by single-crystal
diffractometry
;
loop_
_citation_id
_citation_journal_full
_citation_year
_citation_journal_volume
_citation_page_first
_citation_page_last
_citation_journal_id_ASTM
primary 'Journal of Solid State Chemistry' 1987 68 61 67 JSSCBI
loop_
_publ_author_name
'Okada, Shigeru'
'Atoda, Tetsuzo'
'Higashi, Iwami'
_cell_length_a 2.9782(7)
_cell_length_b 7.870(1)
_cell_length_c 2.9346(8)
_cell_angle_alpha 90.
_cell_angle_beta 90.
_cell_angle_gamma 90.
_cell_volume 68.78
_cell_formula_units_Z 4
_symmetry_space_group_name_H-M 'C m c m'
_symmetry_Int_Tables_number 63
_refine_ls_R_factor_all 0.022
loop_
_symmetry_equiv_pos_site_id
_symmetry_equiv_pos_as_xyz
1 '-x, y, -z+1/2'
2 '-x, -y, z+1/2'
3 '-x, y, z'
4 '-x, -y, -z'
5 'x, -y, z+1/2'
6 'x, y, -z+1/2'
7 'x, -y, -z'
8 'x, y, z'
9 '-x+1/2, y+1/2, -z+1/2'
10 '-x+1/2, -y+1/2, z+1/2'
11 '-x+1/2, y+1/2, z'
12 '-x+1/2, -y+1/2, -z'
13 'x+1/2, -y+1/2, z+1/2'
14 'x+1/2, y+1/2, -z+1/2'
15 'x+1/2, -y+1/2, -z'
16 'x+1/2, y+1/2, z'
loop_
_atom_type_symbol
_atom_type_oxidation_number
Cr3+ 3
B3- -3
loop_
_atom_site_label
_atom_site_type_symbol
_atom_site_symmetry_multiplicity
_atom_site_Wyckoff_symbol
_atom_site_fract_x
_atom_site_fract_y
_atom_site_fract_z
_atom_site_B_iso_or_equiv
_atom_site_occupancy
_atom_site_attached_hydrogens
Cr1 Cr3+ 4 c 0 0.14525(3) 0.25 0.28 1. 0
B1 B3- 4 c 0 0.4360(2) 0.25 0.36 1. 0
loop_
_atom_site_aniso_label
_atom_site_aniso_type_symbol
_atom_site_aniso_U_11
_atom_site_aniso_U_22
_atom_site_aniso_U_33
_atom_site_aniso_U_12
_atom_site_aniso_U_13
_atom_site_aniso_U_23
Cr1 Cr3+ 0.0033(1) 0.0036(1) 0.0038(1) 0 0 0
B1 B3- 0.0039(4) 0.0057(4) 0.0041(4) 0 0 0
#End of TTdata_44249-ICSD