
#(C) 2018 by FIZ Karlsruhe - Leibniz Institute for Information Infrastructure.  All rights reserved.
data_56296-ICSD
_database_code_ICSD 56296
_audit_creation_date 2003-04-01
_audit_update_record 2007-08-01
_chemical_name_systematic 'Carbon aluminium silicon oxide (2/1/5/12)'
_chemical_formula_structural 'C2 (Al Si5 O12)'
_chemical_formula_sum 'C2 Al1 O12 Si5'
_exptl_crystal_density_diffrn 1.8
_publ_section_title 'Structural changes in tsaregorodtsevite'
loop_
_citation_id
_citation_journal_full
_citation_year
_citation_journal_volume
_citation_page_first
_citation_page_last
_citation_journal_id_ASTM
primary 'Doklady Akademii Nauk SSSR' 1993 332 309 312 DANKAS
loop_
_publ_author_name
'Sokolova, E.V.'
'Rybakov, V.B.'
'Pautov, L.A.'
'Pushcharovskii, D.Yu.'
_cell_length_a 8.908(1)
_cell_length_b 8.908
_cell_length_c 8.925(1)
_cell_angle_alpha 90.
_cell_angle_beta 90.
_cell_angle_gamma 90.
_cell_volume 708.22
_cell_formula_units_Z 2
_symmetry_space_group_name_H-M 'I 4 2 2'
_symmetry_Int_Tables_number 97
_refine_ls_R_factor_all 0.047
loop_
_symmetry_equiv_pos_site_id
_symmetry_equiv_pos_as_xyz
1 '-y, x, z'
2 'y, -x, z'
3 '-y, -x, -z'
4 'y, x, -z'
5 'x, -y, -z'
6 '-x, y, -z'
7 '-x, -y, z'
8 'x, y, z'
9 '-y+1/2, x+1/2, z+1/2'
10 'y+1/2, -x+1/2, z+1/2'
11 '-y+1/2, -x+1/2, -z+1/2'
12 'y+1/2, x+1/2, -z+1/2'
13 'x+1/2, -y+1/2, -z+1/2'
14 '-x+1/2, y+1/2, -z+1/2'
15 '-x+1/2, -y+1/2, z+1/2'
16 'x+1/2, y+1/2, z+1/2'
loop_
_atom_type_symbol
_atom_type_oxidation_number
Si4+ 4
Al3+ 3
O2- -2
C0+ 0.5
loop_
_atom_site_label
_atom_site_type_symbol
_atom_site_symmetry_multiplicity
_atom_site_Wyckoff_symbol
_atom_site_fract_x
_atom_site_fract_y
_atom_site_fract_z
_atom_site_B_iso_or_equiv
_atom_site_occupancy
_atom_site_attached_hydrogens
Si1 Si4+ 8 i 0.2489(1) 0 0.5 1.95(2) 1. 0
Si2 Si4+ 4 d 0 0.5 0.25 2.02(2) 0.5 0
Al1 Al3+ 4 d 0 0.5 0.25 2.02(2) 0.5 0
O1 O2- 8 g 0.3539(3) 0.3539 0 5.5(1) 1. 0
O2 O2- 16 k 0.3503(3) -.010(1) 0.3538(4) 4.89(7) 1. 0
C1 C0+ 16 k 0.070(2) 0.105(2) 0.088(2) 4.3(3) 0.25 0
#End of TTdata_56296-ICSD