
#(C) 2017 by FIZ Karlsruhe - Leibniz Institute for Information Infrastructure.  All rights reserved.
data_78279-ICSD
_database_code_ICSD 78279
_audit_creation_date 1996-04-22
_chemical_name_systematic 'Copper(I) bromide - V'
_chemical_formula_structural 'Cu Br'
_chemical_formula_sum 'Br1 Cu1'
_chemical_name_structure_type CuCl
_exptl_crystal_density_diffrn 6.43
_cell_measurement_pressure 7290000.
_publ_section_title

;
High-pressure polymorphism of the copper(I) halides: a neutron-diffraction
study to ca. 10 GPa
;
loop_
_citation_id
_citation_journal_full
_citation_year
_citation_journal_volume
_citation_page_first
_citation_page_last
_citation_journal_id_ASTM
primary 'Physical Review, Serie 3. B - Condensed Matter (18,1978-)' 1994 50 5868
5885 PRBMDO
loop_
_publ_author_name
'Hull, S.'
'Keen, D.A.'
_cell_length_a 6.6674(1)
_cell_length_b 6.6674(1)
_cell_length_c 6.6674(1)
_cell_angle_alpha 90.
_cell_angle_beta 90.
_cell_angle_gamma 90.
_cell_volume 296.39
_cell_formula_units_Z 8
_symmetry_space_group_name_H-M 'P a -3'
_symmetry_Int_Tables_number 205
_refine_ls_R_factor_all 0.0227
loop_
_symmetry_equiv_pos_site_id
_symmetry_equiv_pos_as_xyz
1 '-z+1/2, x+1/2, y'
2 'z+1/2, x, -y+1/2'
3 'z, -x+1/2, y+1/2'
4 '-z, -x, -y'
5 'y, -z+1/2, x+1/2'
6 '-y+1/2, z+1/2, x'
7 'y+1/2, z, -x+1/2'
8 '-y, -z, -x'
9 'x+1/2, y, -z+1/2'
10 'x, -y+1/2, z+1/2'
11 '-x+1/2, y+1/2, z'
12 '-x, -y, -z'
13 'z+1/2, -x+1/2, -y'
14 '-z+1/2, -x, y+1/2'
15 '-z, x+1/2, -y+1/2'
16 'z, x, y'
17 '-y, z+1/2, -x+1/2'
18 'y+1/2, -z+1/2, -x'
19 '-y+1/2, -z, x+1/2'
20 'y, z, x'
21 '-x+1/2, -y, z+1/2'
22 '-x, y+1/2, -z+1/2'
23 'x+1/2, -y+1/2, -z'
24 'x, y, z'
loop_
_atom_type_symbol
_atom_type_oxidation_number
Cu1+ 1
Br1- -1
loop_
_atom_site_label
_atom_site_type_symbol
_atom_site_symmetry_multiplicity
_atom_site_Wyckoff_symbol
_atom_site_fract_x
_atom_site_fract_y
_atom_site_fract_z
_atom_site_B_iso_or_equiv
_atom_site_occupancy
_atom_site_attached_hydrogens
Cu1 Cu1+ 8 c 0.6289(2) 0.6289(2) 0.6289(2) 2.20(4) 1. 0
Br1 Br1- 8 c 0.1536(2) 0.1536(2) 0.1536(2) 0.92(3) 1. 0
#End of TTdata_78279-ICSD