
#(C) 2017 by FIZ Karlsruhe - Leibniz Institute for Information Infrastructure.  All rights reserved.
data_169617-ICSD
_database_code_ICSD 169617
_audit_creation_date 2011-08-01
_chemical_name_systematic 'Mercury sulfide - alpha'
_chemical_formula_structural 'Hg S'
_chemical_formula_sum 'Hg1 S1'
_chemical_name_structure_type HgS
_chemical_name_mineral Cinnabar
_exptl_crystal_density_diffrn 10.42
_cell_measurement_temperature 443.
_cell_measurement_pressure 12700000.
_publ_section_title

;
Phase transition and EOS of cinnabar (alpha-Hg S) at high pressure and high
temperature
;
loop_
_citation_id
_citation_journal_full
_citation_year
_citation_journal_volume
_citation_page_first
_citation_page_last
_citation_journal_id_ASTM
primary 'Chinese Physics Letters' 2009 26 046402-1 046402-4 CPLEEU
loop_
_publ_author_name
'Fan, Da Wei'
'Zhou, Wen Ge'
'Liu, Cong Qiang'
'Wan, Fang'
'Xing, Yin Suo'
'Liu, Jing'
'Li, Yan Chun'
'Xie, Hong Sen'
_cell_length_a 3.836(32)
_cell_length_b 3.836(32)
_cell_length_c 8.731(24)
_cell_angle_alpha 90.
_cell_angle_beta 90.
_cell_angle_gamma 120.
_cell_volume 111.26
_cell_formula_units_Z 3
_symmetry_space_group_name_H-M 'P 32 2 1'
_symmetry_Int_Tables_number 154
loop_
_symmetry_equiv_pos_site_id
_symmetry_equiv_pos_as_xyz
1 '-x, -x+y, -z+2/3'
2 'x-y, -y, -z+1/3'
3 'y, x, -z'
4 '-x+y, -x, z+1/3'
5 '-y, x-y, z+2/3'
6 'x, y, z'
loop_
_atom_type_symbol
_atom_type_oxidation_number
Hg2+ 2
S2- -2
loop_
_atom_site_label
_atom_site_type_symbol
_atom_site_symmetry_multiplicity
_atom_site_Wyckoff_symbol
_atom_site_fract_x
_atom_site_fract_y
_atom_site_fract_z
_atom_site_B_iso_or_equiv
_atom_site_occupancy
_atom_site_attached_hydrogens
Hg1 Hg2+ 3 a 0.7198 0 0.6667 . 1. 0
S1 S2- 3 b 0.4889 0 0.1667 . 1. 0
#End of TTdata_169617-ICSD