
#(C) 2017 by FIZ Karlsruhe - Leibniz Institute for Information Infrastructure.  All rights reserved.
data_151216-ICSD
_database_code_ICSD 151216
_audit_creation_date 2006-10-01
_chemical_name_systematic 'Aluminium copper (1/3) - gamma''
_chemical_formula_structural 'Al Cu3'
_chemical_formula_sum 'Al1 Cu3'
_chemical_name_structure_type AuCuZn2
_exptl_crystal_density_diffrn 7.26
_publ_section_title

;
Transformations in eutectoid alloys of Cu - Al. V. Structure of the
martensitic phase gamma' and the mechanism of the beta1 - gamma'
transformation
;
loop_
_citation_id
_citation_journal_full
_citation_year
_citation_journal_volume
_citation_page_first
_citation_page_last
_citation_journal_id_ASTM
primary 'Zhurnal Tekhnicheskoi Fiziki' 1938 8 1959 1972 ZTEFA3
loop_
_publ_author_name
'Kurdjumov, G.'
'Mireckij, V.'
'Stelleckaja, T.'
_cell_length_a 4.52
_cell_length_b 5.21
_cell_length_c 4.23
_cell_angle_alpha 90.
_cell_angle_beta 90.
_cell_angle_gamma 90.
_cell_volume 99.61
_cell_formula_units_Z 2
_symmetry_space_group_name_H-M 'P 2 m m'
_symmetry_Int_Tables_number 25
loop_
_symmetry_equiv_pos_site_id
_symmetry_equiv_pos_as_xyz
1 'x, y, -z'
2 'x, -y, z'
3 'x, -y, -z'
4 'x, y, z'
loop_
_atom_type_symbol
_atom_type_oxidation_number
Al0+ 0
Cu0+ 0
loop_
_atom_site_label
_atom_site_type_symbol
_atom_site_symmetry_multiplicity
_atom_site_Wyckoff_symbol
_atom_site_fract_x
_atom_site_fract_y
_atom_site_fract_z
_atom_site_B_iso_or_equiv
_atom_site_occupancy
_atom_site_attached_hydrogens
Al1 Al0+ 1 a 0 0 0 . 1. 0
Al2 Al0+ 1 d 0.333 0.5 0.5 . 1. 0
Cu1 Cu0+ 1 c 0 0.5 0 . 1. 0
Cu2 Cu0+ 1 b 0.333 0 0.5 . 1. 0
Cu3 Cu0+ 2 e 0.5 0.25 0 . 1. 0
Cu4 Cu0+ 2 f 0.833 0.25 0.5 . 1. 0
#End of TTdata_151216-ICSD