
#(C) 2018 by FIZ Karlsruhe - Leibniz Institute for Information Infrastructure.  All rights reserved.
data_60598-ICSD
_database_code_ICSD 60598
_audit_creation_date 1986-12-03
_audit_update_record 2006-04-01
_chemical_name_systematic 'Niobium tetratelluride'
_chemical_formula_structural 'Nb Te4'
_chemical_formula_sum 'Nb1 Te4'
_chemical_name_structure_type NbTe4
_exptl_crystal_density_diffrn 6.93
_publ_section_title 'The modulated structure of niobium tetratelluride NbTe4'
loop_
_citation_id
_citation_journal_full
_citation_year
_citation_journal_volume
_citation_page_first
_citation_page_last
_citation_journal_id_ASTM
primary 'Zeitschrift fuer Kristallographie' 1985 171 41 64 ZEKRDZ
loop_
_publ_author_name
'Boehm, H.'
'von Schnering, H.G.'
_cell_length_a 9.197(5)
_cell_length_b 9.197(5)
_cell_length_c 6.835(3)
_cell_angle_alpha 90.
_cell_angle_beta 90.
_cell_angle_gamma 90.
_cell_volume 578.14
_cell_formula_units_Z 4
_symmetry_space_group_name_H-M 'C 4/m c c'
_symmetry_Int_Tables_number 124
_refine_ls_R_factor_all 0.101
loop_
_symmetry_equiv_pos_site_id
_symmetry_equiv_pos_as_xyz
1 'y, x, z+1/2'
2 '-y, -x, z+1/2'
3 '-x, y, z+1/2'
4 'x, -y, z+1/2'
5 '-y, x, -z'
6 'y, -x, -z'
7 'x, y, -z'
8 '-x, -y, -z'
9 '-y, -x, -z+1/2'
10 'y, x, -z+1/2'
11 'x, -y, -z+1/2'
12 '-x, y, -z+1/2'
13 'y, -x, z'
14 '-y, x, z'
15 '-x, -y, z'
16 'x, y, z'
17 'y+1/2, x+1/2, z+1/2'
18 '-y+1/2, -x+1/2, z+1/2'
19 '-x+1/2, y+1/2, z+1/2'
20 'x+1/2, -y+1/2, z+1/2'
21 '-y+1/2, x+1/2, -z'
22 'y+1/2, -x+1/2, -z'
23 'x+1/2, y+1/2, -z'
24 '-x+1/2, -y+1/2, -z'
25 '-y+1/2, -x+1/2, -z+1/2'
26 'y+1/2, x+1/2, -z+1/2'
27 'x+1/2, -y+1/2, -z+1/2'
28 '-x+1/2, y+1/2, -z+1/2'
29 'y+1/2, -x+1/2, z'
30 '-y+1/2, x+1/2, z'
31 '-x+1/2, -y+1/2, z'
32 'x+1/2, y+1/2, z'
loop_
_atom_type_symbol
_atom_type_oxidation_number
Nb4+ 4
Te1- -1
loop_
_atom_site_label
_atom_site_type_symbol
_atom_site_symmetry_multiplicity
_atom_site_Wyckoff_symbol
_atom_site_fract_x
_atom_site_fract_y
_atom_site_fract_z
_atom_site_B_iso_or_equiv
_atom_site_occupancy
_atom_site_attached_hydrogens
Nb1 Nb4+ 4 a 0 0 0.25 0.020(2) 1. 0
Te1 Te1- 16 m 0.2360(2) 0.0923(3) 0 0.017(2) 1. 0
#End of TTdata_60598-ICSD