
#(C) 2017 by FIZ Karlsruhe - Leibniz Institute for Information Infrastructure.  All rights reserved.
data_35002-ICSD
_database_code_ICSD 35002
_audit_creation_date 1982-12-31
_audit_update_record 2012-08-01
_chemical_name_systematic 'Iron diiron(III) oxide'
_chemical_formula_structural 'Fe3 O4'
_chemical_formula_sum 'Fe3 O4'
_chemical_name_structure_type Fe3O4(LT)
_chemical_name_mineral 'Magnetite low'
_exptl_crystal_density_diffrn 5.22
_publ_section_title
'Structure of magnetite Fe3 O4 below the Verwey transition temperature'
loop_
_citation_id
_citation_journal_full
_citation_year
_citation_journal_volume
_citation_page_first
_citation_page_last
_citation_journal_id_ASTM
primary 'Acta Crystallographica B (24,1968-38,1982)' 1982 38 2121 2133 ACBCAR
loop_
_publ_author_name
'Iizumi, M.'
'Koetzle, T.F.'
'Shirane, G.'
'Chikazumi, S.'
'Matsui, M.'
'Todo, S.'
_cell_length_a 5.934(1)
_cell_length_b 5.925(1)
_cell_length_c 16.752(4)
_cell_angle_alpha 90.
_cell_angle_beta 90.
_cell_angle_gamma 90.
_cell_volume 588.98
_cell_formula_units_Z 8
_symmetry_space_group_name_H-M 'P m c 21'
_symmetry_Int_Tables_number 26
loop_
_symmetry_equiv_pos_site_id
_symmetry_equiv_pos_as_xyz
1 'x, -y, z+1/2'
2 '-x, -y, z+1/2'
3 '-x, y, z'
4 'x, y, z'
loop_
_atom_type_symbol
_atom_type_oxidation_number
Fe2+ 2
Fe3+ 3
O2- -2
loop_
_atom_site_label
_atom_site_type_symbol
_atom_site_symmetry_multiplicity
_atom_site_Wyckoff_symbol
_atom_site_fract_x
_atom_site_fract_y
_atom_site_fract_z
_atom_site_B_iso_or_equiv
_atom_site_occupancy
_atom_site_attached_hydrogens
Fe1 Fe2+ 2 a 0 0 0.3125 0.1 1. 0
Fe2 Fe2+ 2 b 0.5 0 0.0625 0.1 1. 0
Fe3 Fe2+ 2 b 0.5 0.5 0.1875 0.1 1. 0
Fe4 Fe2+ 2 a 0 0.5 0.3125 0.1 1. 0
Fe5 Fe3+ 4 c 0.25 0.5 0 0.13 1. 0
Fe6 Fe3+ 2 a 0 0.25 0.125 0.1 1. 0
Fe7 Fe3+ 2 a 0 0.75 0.125 0.1 1. 0
Fe8 Fe3+ 4 c 0.25 0 0.25 0.14 1. 0
Fe9 Fe3+ 2 b 0.5 0.25 0.375 0.1 1. 0
Fe10 Fe3+ 2 b 0.5 0.75 0.375 0.1 1. 0
O1 O2- 2 a 0 0.2596 0.0024 0.13 1. 0
O2 O2- 2 b 0.5 0.2596 -.0024 0.16 1. 0
O3 O2- 2 a 0 0.7404 0.0024 0.16 1. 0
O4 O2- 2 b 0.5 0.7404 -.0024 0.13 1. 0
O5 O2- 4 c 0.2404 0 0.1274 0.17 1. 0
O6 O2- 4 c 0.2404 0.5 0.1226 0.11 1. 0
O7 O2- 2 a 0 0.2404 0.2476 0.27 1. 0
O8 O2- 2 b 0.5 0.2404 0.2524 0.27 1. 0
O9 O2- 2 a 0 0.7596 0.2476 0.2 1. 0
O10 O2- 2 b 0.5 0.7596 0.2524 0.2 1. 0
O11 O2- 4 c 0.2596 0 0.3726 0.17 1. 0
O12 O2- 4 c 0.2596 0.5 0.3774 0.11 1. 0
#End of TTdata_35002-ICSD