
#(C) 2018 by FIZ Karlsruhe - Leibniz Institute for Information Infrastructure.  All rights reserved.
data_54203-ICSD
_database_code_ICSD 54203
_audit_creation_date 2004-04-01
_chemical_name_systematic 'Tantalum - beta, LT host'
_chemical_formula_structural Ta22
_chemical_formula_sum Ta22
_exptl_crystal_density_diffrn 12.04
_cell_measurement_temperature 120.
_publ_section_title
'The commensurate composite sigma-structure of beta-tantalum'
loop_
_citation_id
_citation_journal_full
_citation_year
_citation_journal_volume
_citation_page_first
_citation_page_last
_citation_journal_id_ASTM
primary 'Acta Crystallographica, Section B: Structural Science' 2003 59 324 336
ASBSDK
loop_
_publ_author_name
'Arakcheeva, A.V.'
'Chapuis, G.'
'Birkedal, H.'
'Pattison, P.'
'Grinevich, V.V.'
_cell_length_a 10.1815(5)
_cell_length_b 10.1815(5)
_cell_length_c 5.2950(1)
_cell_angle_alpha 90.
_cell_angle_beta 90.
_cell_angle_gamma 90.
_cell_volume 548.9
_cell_formula_units_Z 1
_symmetry_space_group_name_H-M 'P -4'
_symmetry_Int_Tables_number 81
_refine_ls_R_factor_all 0.0363
loop_
_symmetry_equiv_pos_site_id
_symmetry_equiv_pos_as_xyz
1 '-y, x, -z'
2 'y, -x, -z'
3 '-x, -y, z'
4 'x, y, z'
loop_
_atom_type_symbol
_atom_type_oxidation_number
Ta0+ 0
loop_
_atom_site_label
_atom_site_type_symbol
_atom_site_symmetry_multiplicity
_atom_site_Wyckoff_symbol
_atom_site_fract_x
_atom_site_fract_y
_atom_site_fract_z
_atom_site_B_iso_or_equiv
_atom_site_occupancy
_atom_site_attached_hydrogens
Ta1 Ta0+ 2 g 0.5 0 0.2548 0.0054(3) 1. 0
Ta2 Ta0+ 4 h 0.75963(10) 0.06646(7) 0.2493(4) 0.0055(3) 1. 0
Ta3 Ta0+ 4 h 0.43251(8) -.26252(9) 0.2521(5) 0.0056(3) 1. 0
Ta4 Ta0+ 4 h 0.03408(9) 0.12735(10) 0.2519(5) 0.0054(3) 1. 0
Ta5 Ta0+ 4 h 0.37007(9) -.53527(9) 0.2488(5) 0.0057(3) 1. 0
Ta6 Ta0+ 4 h 0.10620(9) -.60509(9) 0.2513(4) 0.0056(3) 1. 0
loop_
_atom_site_aniso_label
_atom_site_aniso_type_symbol
_atom_site_aniso_U_11
_atom_site_aniso_U_22
_atom_site_aniso_U_33
_atom_site_aniso_U_12
_atom_site_aniso_U_13
_atom_site_aniso_U_23
Ta1 Ta0+ 0.0035(7) 0.0071(7) 0.0056(3) -0.0009(2) 0 0
Ta2 Ta0+ 0.0066(5) 0.0057(6) 0.0040(6) -0.0048(3) 0.0013(9) -0.0010(9)
Ta3 Ta0+ 0.0054(5) 0.0039(5) 0.0075(6) 0.0040(3) 0.0012(9) 0.0006(8)
Ta4 Ta0+ 0.0064(4) 0.0062(5) 0.0036(5) -0.0008(3) -0.0010(8) -0.0010(9)
Ta5 Ta0+ 0.0035(5) 0.0052(4) 0.0083(7) 0.0006(3) -0.0036(8) 0.0006(9)
Ta6 Ta0+ 0.0068(5) 0.0041(5) 0.0059(3) -0.0047(16) -0.0002(10) 0.0009(10)
#End of TTdata_54203-ICSD