
#(C) 2018 by FIZ Karlsruhe - Leibniz Institute for Information Infrastructure.  All rights reserved.
data_93975-ICSD
_database_code_ICSD 93975
_audit_creation_date 2003-04-01
_audit_update_record 2006-04-01
_chemical_name_systematic 'Silicon oxide - beta'
_chemical_formula_structural 'Si O2'
_chemical_formula_sum 'O2 Si1'
_chemical_name_structure_type Quartz,high
_chemical_name_mineral 'Quartz high'
_exptl_crystal_density_diffrn 2.54
_cell_measurement_temperature 1073.
_publ_section_title

;
A detailed structural characterization of quartz on heating through the alpha
- beta transition
;
loop_
_citation_id
_citation_journal_full
_citation_year
_citation_journal_volume
_citation_page_first
_citation_page_last
_citation_journal_id_ASTM
primary 'Mineralogical Magazine' 2001 65 489 507 MNLMBB
loop_
_publ_author_name
'Tucker, M.G.'
'Keen, D.A.'
'Dove, M.T.'
_cell_length_a 4.9965(1)
_cell_length_b 4.9965(1)
_cell_length_c 5.4543(1)
_cell_angle_alpha 90
_cell_angle_beta 90
_cell_angle_gamma 120
_cell_volume 117.92
_cell_formula_units_Z 3
_symmetry_space_group_name_H-M 'P 64 2 2'
_symmetry_Int_Tables_number 181
_refine_ls_R_factor_all 0.01
loop_
_symmetry_equiv_pos_site_id
_symmetry_equiv_pos_as_xyz
1 'x, x-y, -z+2/3'
2 '-x+y, y, -z'
3 '-y, -x, -z+1/3'
4 '-x, -x+y, -z+2/3'
5 'x-y, -y, -z'
6 'y, x, -z+1/3'
7 'x-y, x, z+2/3'
8 'y, -x+y, z+1/3'
9 '-x, -y, z'
10 '-x+y, -x, z+2/3'
11 '-y, x-y, z+1/3'
12 'x, y, z'
loop_
_atom_type_symbol
_atom_type_oxidation_number
Si4+ 4
O2- -2
loop_
_atom_site_label
_atom_site_type_symbol
_atom_site_symmetry_multiplicity
_atom_site_Wyckoff_symbol
_atom_site_fract_x
_atom_site_fract_y
_atom_site_fract_z
_atom_site_B_iso_or_equiv
_atom_site_occupancy
_atom_site_attached_hydrogens
Si1 Si4+ 3 c 0.5 0 0 . 1. 0
O1 O2- 6 j 0.4169(4) 0.20845(20) 0.8333 . 1. 0
loop_
_atom_site_aniso_label
_atom_site_aniso_type_symbol
_atom_site_aniso_B_11
_atom_site_aniso_B_22
_atom_site_aniso_B_33
_atom_site_aniso_B_12
_atom_site_aniso_B_13
_atom_site_aniso_B_23
Si1 Si4+ 1.75(8) 0.83(9) 1.51(11) 0.42(5) 0. 0.
O1 O2- 4.01(10) 3.70(7) 5.21(10) 2.01(5) 0.(1) 3.54(6)
#End of TTdata_93975-ICSD