
#(C) 2017 by FIZ Karlsruhe - Leibniz Institute for Information Infrastructure.  All rights reserved.
data_240196-ICSD
_database_code_ICSD 240196
_audit_creation_date 2004-10-01
_chemical_name_systematic 'Aluminium copper (35.47/47.79) - eta1'
_chemical_formula_structural 'Al35.472 Cu47.792'
_chemical_formula_sum 'Al35.472 Cu47.792'
_exptl_crystal_density_diffrn 5.75
_publ_section_title 'The crystal structure of eta1-Al3 Cu4'
loop_
_citation_id
_citation_journal_full
_citation_year
_citation_journal_volume
_citation_page_first
_citation_page_last
_citation_journal_id_ASTM
primary 'Journal of Alloys and Compounds' 2004 367 103 108 JALCEU
loop_
_publ_author_name
'Gulay, L.D.'
'Harbrecht, B.'
_cell_length_a 8.1267(3)
_cell_length_b 14.1985(5)
_cell_length_c 9.9928(3)
_cell_angle_alpha 90
_cell_angle_beta 90
_cell_angle_gamma 90
_cell_volume 1153.04
_cell_formula_units_Z 1
_symmetry_space_group_name_H-M 'F m m 2'
_symmetry_Int_Tables_number 42
_refine_ls_R_factor_all 0.0633
loop_
_symmetry_equiv_pos_site_id
_symmetry_equiv_pos_as_xyz
1 'x, -y, z'
2 '-x, y, z'
3 '-x, -y, z'
4 'x, y, z'
5 'x, -y+1/2, z+1/2'
6 '-x, y+1/2, z+1/2'
7 '-x, -y+1/2, z+1/2'
8 'x, y+1/2, z+1/2'
9 'x+1/2, -y, z+1/2'
10 '-x+1/2, y, z+1/2'
11 '-x+1/2, -y, z+1/2'
12 'x+1/2, y, z+1/2'
13 'x+1/2, -y+1/2, z'
14 '-x+1/2, y+1/2, z'
15 '-x+1/2, -y+1/2, z'
16 'x+1/2, y+1/2, z'
loop_
_atom_type_symbol
_atom_type_oxidation_number
Cu0+ 0
Al0+ 0
loop_
_atom_site_label
_atom_site_type_symbol
_atom_site_symmetry_multiplicity
_atom_site_Wyckoff_symbol
_atom_site_fract_x
_atom_site_fract_y
_atom_site_fract_z
_atom_site_B_iso_or_equiv
_atom_site_occupancy
_atom_site_attached_hydrogens
Cu1 Cu0+ 4 a 0 0 0.2377(3) 0.9(1) 1. 0
Cu2 Cu0+ 4 a 0 0 0.5187(3) 1.4(1) 1. 0
Cu3 Cu0+ 4 a 0 0 0.7632(3) 2.1(1) 1. 0
Cu4 Cu0+ 8 b 0.25 0.25 0.2390(2) 1.64(8) 1. 0
Cu5 Cu0+ 8 b 0.25 0.25 0.5271(2) 1.21(8) 1. 0
Cu6 Cu0+ 8 c 0 0.1681(2) 0.8701(3) 2.11(8) 1. 0
Cu7 Cu0+ 8 c 0 0.1571(4) 0.6090(4) 0.8(2) 0.408(3) 0
Cu8 Cu0+ 16 e 0.2333(2) 0.0896(1) 0.3846(4) 1.82(7) 0.533(3) 0
Al1 Al0+ 16 e 0.2333(2) 0.0896(1) 0.3846(4) 1.82(7) 0.467(3) 0
Al2 Al0+ 4 a 0 0 0 0.9(2) 1. 0
Al3 Al0+ 8 c 0 0.1710(3) 0.1318(5) 1.2(2) 1. 0
Al4 Al0+ 16 e 0.2747(3) 0.0821(2) 0.1338(5) 0.6(1) 1. 0
#End of TTdata_240196-ICSD