
#(C) 2018 by FIZ Karlsruhe - Leibniz Institute for Information Infrastructure.  All rights reserved.
data_186233-ICSD
_database_code_ICSD 186233
_audit_creation_date 2013-02-01
_chemical_name_systematic 'Erbium iron deuteride (1/2/2.94)'
_chemical_formula_structural 'Er Fe2 D2.94'
_chemical_formula_sum 'D2.94 Er1 Fe2'
_exptl_crystal_density_diffrn 8.05
_cell_measurement_temperature 375.
_publ_section_title 'Structural and magnetic properties of Er Fe2 D3.1'
loop_
_citation_id
_citation_journal_full
_citation_year
_citation_journal_volume
_citation_page_first
_citation_page_last
_citation_journal_id_ASTM
primary 'Journal of Alloys and Compounds' 2012 538 79 84 JALCEU
loop_
_publ_author_name
'Sherstobitova, E.A.'
'Gubkin, A.F.'
'Terent'ev, P.B.'
'Sherstobitov, A.A.'
'Pirogov, A.N.'
'Mushnikov, N.V.'
_cell_length_a 7.775
_cell_length_b 7.775
_cell_length_c 7.775
_cell_angle_alpha 90.
_cell_angle_beta 90.
_cell_angle_gamma 90.
_cell_volume 470.
_cell_formula_units_Z 8
_symmetry_space_group_name_H-M 'F 2 3'
_symmetry_Int_Tables_number 196
loop_
_symmetry_equiv_pos_site_id
_symmetry_equiv_pos_as_xyz
1 '-z, -x, y'
2 '-y, -z, x'
3 '-x, -y, z'
4 '-z, x, -y'
5 '-y, z, -x'
6 '-x, y, -z'
7 'z, -x, -y'
8 'y, -z, -x'
9 'x, -y, -z'
10 'z, x, y'
11 'y, z, x'
12 'x, y, z'
13 '-z, -x+1/2, y+1/2'
14 '-y, -z+1/2, x+1/2'
15 '-x, -y+1/2, z+1/2'
16 '-z, x+1/2, -y+1/2'
17 '-y, z+1/2, -x+1/2'
18 '-x, y+1/2, -z+1/2'
19 'z, -x+1/2, -y+1/2'
20 'y, -z+1/2, -x+1/2'
21 'x, -y+1/2, -z+1/2'
22 'z, x+1/2, y+1/2'
23 'y, z+1/2, x+1/2'
24 'x, y+1/2, z+1/2'
25 '-z+1/2, -x, y+1/2'
26 '-y+1/2, -z, x+1/2'
27 '-x+1/2, -y, z+1/2'
28 '-z+1/2, x, -y+1/2'
29 '-y+1/2, z, -x+1/2'
30 '-x+1/2, y, -z+1/2'
31 'z+1/2, -x, -y+1/2'
32 'y+1/2, -z, -x+1/2'
33 'x+1/2, -y, -z+1/2'
34 'z+1/2, x, y+1/2'
35 'y+1/2, z, x+1/2'
36 'x+1/2, y, z+1/2'
37 '-z+1/2, -x+1/2, y'
38 '-y+1/2, -z+1/2, x'
39 '-x+1/2, -y+1/2, z'
40 '-z+1/2, x+1/2, -y'
41 '-y+1/2, z+1/2, -x'
42 '-x+1/2, y+1/2, -z'
43 'z+1/2, -x+1/2, -y'
44 'y+1/2, -z+1/2, -x'
45 'x+1/2, -y+1/2, -z'
46 'z+1/2, x+1/2, y'
47 'y+1/2, z+1/2, x'
48 'x+1/2, y+1/2, z'
loop_
_atom_type_symbol
_atom_type_oxidation_number
Er0+ 0
Fe0+ 0
D0+ 0
loop_
_atom_site_label
_atom_site_type_symbol
_atom_site_symmetry_multiplicity
_atom_site_Wyckoff_symbol
_atom_site_fract_x
_atom_site_fract_y
_atom_site_fract_z
_atom_site_B_iso_or_equiv
_atom_site_occupancy
_atom_site_attached_hydrogens
Er1 Er0+ 4 a 0 0 0 . 1. 0
Er2 Er0+ 4 c 0.25 0.25 0.25 . 1. 0
Fe1 Fe0+ 16 e 0.627(2) 0.627(2) 0.627(2) . 1. 0
D1 D0+ 48 h 0.043(8) 0.267(3) 0.053(9) . 0.37(1) 0
D2 D0+ 48 h 0.724(3) 0.995(10) 0.729(27) . 0.12(1) 0
#End of TTdata_186233-ICSD