
#(C) 2017 by FIZ Karlsruhe - Leibniz Institute for Information Infrastructure.  All rights reserved.
data_40176-ICSD
_database_code_ICSD 40176
_audit_creation_date 1999-11-30
_audit_update_record 2014-08-01
_chemical_name_systematic 'Lanthanum niobium sulfide (1.14/1/3.14) - supercell'
_chemical_formula_structural '(La S)1.14 (Nb S2)'
_chemical_formula_sum 'La1.14 Nb1 S3.14'
_chemical_name_structure_type (LaS)1.1NbS2
_exptl_crystal_density_diffrn 5.27
_publ_section_title
'Structural investigation of (La S)1.14 Nb S2 and resistivity measurements'
loop_
_citation_id
_citation_journal_full
_citation_year
_citation_journal_volume
_citation_page_first
_citation_page_last
_citation_journal_id_ASTM
primary 'Materials Research Bulletin' 1990 25 855 861 MRBUAC
loop_
_publ_author_name
'Meerschaut, A.'
'Rabu, P.'
'Rouxel, J.'
'Monceau, P.'
'Smontara, A.'
_cell_length_a 23.2160(60)
_cell_length_b 5.806(2)
_cell_length_c 23.0310(90)
_cell_angle_alpha 90.
_cell_angle_beta 90.
_cell_angle_gamma 90.
_cell_volume 3104.4
_cell_formula_units_Z 28
_symmetry_space_group_name_H-M 'B b 2 b'
_symmetry_Int_Tables_number 37
_refine_ls_R_factor_all 0.067
loop_
_symmetry_equiv_pos_site_id
_symmetry_equiv_pos_as_xyz
1 'x, y+1/2, -z'
2 '-x, y+1/2, z'
3 '-x, y, -z'
4 'x, y, z'
5 'x+1/2, y+1/2, -z+1/2'
6 '-x+1/2, y+1/2, z+1/2'
7 '-x+1/2, y, -z+1/2'
8 'x+1/2, y, z+1/2'
loop_
_atom_type_symbol
_atom_type_oxidation_number
La3+ 3
Nb2+ 2.857
S2- -2
loop_
_atom_site_label
_atom_site_type_symbol
_atom_site_symmetry_multiplicity
_atom_site_Wyckoff_symbol
_atom_site_fract_x
_atom_site_fract_y
_atom_site_fract_z
_atom_site_B_iso_or_equiv
_atom_site_occupancy
_atom_site_attached_hydrogens
La1 La3+ 8 d 0.0610(3) -.066(2) 0.4247(3) 5.2(1) 1. 0
La2 La3+ 8 d 0.1800(3) 0.4100(5) 0.4255(2) 2.93(7) 1. 0
La3 La3+ 8 d 0.3112(1) -.0614(4) 0.4240(1) 0.75(3) 1. 0
La4 La3+ 8 d 0.4378(2) 0.4157(6) 0.4233(1) 1.58(5) 1. 0
Nb1 Nb2+ 8 d 0.0379(2) -.0008(8) 0.2510(2) -.07(4) 1. 0
Nb2 Nb2+ 8 d 0.1102(2) 0.5002(9) 0.2503(3) 0.44(4) 1. 0
Nb3 Nb2+ 8 d 0.1852(3) 0.0029(9) 0.2502(3) 1.66(6) 1. 0
Nb4 Nb2+ 4 c 0.25 0.5 0.25 3.7(2) 1. 0
S1 S2- 8 d 0.0552(8) 0.420(5) 0.452(1) 3.4(5) 1. 0
S2 S2- 8 d 0.1809(8) -.087(2) 0.4485(6) 1.5(2) 1. 0
S3 S2- 8 d 0.3063(6) 0.431(2) 0.4510(6) 1.4(2) 1. 0
S4 S2- 8 d 0.4352(6) -.075(3) 0.4489(4) 0.1(1) 1. 0
S5 S2- 8 d 0.0291(4) 0.668(2) 0.3145(5) -.4(1) 1. 0
S6 S2- 8 d 0.0457(7) -.327(3) 0.182(1) 1.7(3) 1. 0
S7 S2- 8 d 0.1053(5) 0.170(2) 0.3231(5) -.1(1) 1. 0
S8 S2- 8 d 0.115(1) 0.175(6) 0.187(2) 5.1(7) 1. 0
S9 S2- 8 d 0.1721(8) -.330(3) 0.3216(8) 1.8(3) 1. 0
S10 S2- 8 d 0.1778(5) 0.668(2) 0.1849(5) 0.1(1) 1. 0
S11 S2- 8 d 0.2451(5) 0.167(2) 0.3181(4) -.2(1) 1. 0
#End of TTdata_40176-ICSD