
#(C) 2018 by FIZ Karlsruhe - Leibniz Institute for Information Infrastructure.  All rights reserved.
data_34853-ICSD
_database_code_ICSD 34853
_audit_creation_date 1980-01-01
_audit_update_record 2016-02-01
_chemical_name_systematic 'Nickel arsenide (11/8)'
_chemical_formula_structural 'Ni11 As8'
_chemical_formula_sum 'As8 Ni11'
_chemical_name_mineral Maucherite
_exptl_crystal_density_diffrn 8.03
_publ_section_title 'The crystal structure of maucherite'
loop_
_citation_id
_citation_journal_full
_citation_year
_citation_journal_volume
_citation_page_first
_citation_page_last
_citation_journal_id_ASTM
primary 'American Mineralogist' 1973 58 203 210 AMMIAY
loop_
_publ_author_name
'Fleet, M.E.'
_cell_length_a 6.8724(4)
_cell_length_b 6.8724(4)
_cell_length_c 21.821(1)
_cell_angle_alpha 90.
_cell_angle_beta 90.
_cell_angle_gamma 90.
_cell_volume 1030.6
_cell_formula_units_Z 4
_symmetry_space_group_name_H-M 'P 41 21 2'
_symmetry_Int_Tables_number 92
_refine_ls_R_factor_all 0.063
loop_
_symmetry_equiv_pos_site_id
_symmetry_equiv_pos_as_xyz
1 'x+1/2, -y+1/2, -z+3/4'
2 '-x+1/2, y+1/2, -z+1/4'
3 '-y, -x, -z+1/2'
4 'y, x, -z'
5 'y+1/2, -x+1/2, z+3/4'
6 '-y+1/2, x+1/2, z+1/4'
7 '-x, -y, z+1/2'
8 'x, y, z'
loop_
_atom_type_symbol
_atom_type_oxidation_number
Ni0+ 0
As0+ 0
loop_
_atom_site_label
_atom_site_type_symbol
_atom_site_symmetry_multiplicity
_atom_site_Wyckoff_symbol
_atom_site_fract_x
_atom_site_fract_y
_atom_site_fract_z
_atom_site_B_iso_or_equiv
_atom_site_occupancy
_atom_site_attached_hydrogens
Ni1 Ni0+ 8 b 0.125(2) 0.373(2) 0.2686(3) 0.66(9) 1. 0
Ni2 Ni0+ 4 a 0.375 0.375 0 0.43(13) 1. 0
Ni3 Ni0+ 8 b 0.120(3) 0.569(2) 0.1734(4) 0.35(4) 1. 0
Ni4 Ni0+ 8 b 0.608(2) 0.562(2) 0.1710(5) 0.35(4) 1. 0
Ni5 Ni0+ 8 b 0.372(3) 0.683(2) 0.0805(4) 0.35(4) 1. 0
Ni6 Ni0+ 8 b 0.871(3) 0.690(2) 0.0770(4) 0.35(4) 1. 0
As1 As0+ 4 a 0.120(2) 0.120(2) 0 0.43(5) 1. 0
As2 As0+ 4 a 0.635(2) 0.635(2) 0 0.43(5) 1. 0
As3 As0+ 8 b 0.635(2) 0.129(2) 0.0004(2) 0.43(5) 1. 0
As4 As0+ 8 b 0.877(2) 0.382(2) 0.125(2) 0.32(5) 1. 0
As5 As0+ 8 b 0.121(2) 0.869(2) 0.1289(2) 0.32(5) 1. 0
#End of TTdata_34853-ICSD