
#(C) 2018 by FIZ Karlsruhe - Leibniz Institute for Information Infrastructure.  All rights reserved.
data_59735-ICSD
_database_code_ICSD 59735
_audit_creation_date 2005-04-01
_audit_update_record 2006-04-01
_chemical_name_systematic 'Thallium sulfide'
_chemical_formula_structural 'Tl2 S'
_chemical_formula_sum 'S1 Tl2'
_chemical_name_structure_type Tl2S
_chemical_name_mineral Carlinite
_exptl_crystal_density_diffrn 8.5
_publ_section_title
'Tl2 S: Re-determination of crystal structure and stereochemical discussion'
loop_
_citation_id
_citation_journal_full
_citation_year
_citation_journal_volume
_citation_page_first
_citation_page_last
_citation_journal_id_ASTM
primary 'Journal of Solid State Chemistry' 2002 168 322 330 JSSCBI
loop_
_publ_author_name
'Giester, G.'
'Lengauer, C.L.'
'Tillmanns, E.'
'Zemann, J.'
_cell_length_a 12.150(2)
_cell_length_b 12.150(2)
_cell_length_c 18.190(4)
_cell_angle_alpha 90.
_cell_angle_beta 90.
_cell_angle_gamma 120.
_cell_volume 2325.5
_cell_formula_units_Z 27
_symmetry_space_group_name_H-M 'R 3 H'
_symmetry_Int_Tables_number 146
_refine_ls_R_factor_all 0.076
loop_
_symmetry_equiv_pos_site_id
_symmetry_equiv_pos_as_xyz
1 '-x+y, -x, z'
2 '-y, x-y, z'
3 'x, y, z'
4 '-x+y+2/3, -x+1/3, z+1/3'
5 '-y+2/3, x-y+1/3, z+1/3'
6 'x+2/3, y+1/3, z+1/3'
7 '-x+y+1/3, -x+2/3, z+2/3'
8 '-y+1/3, x-y+2/3, z+2/3'
9 'x+1/3, y+2/3, z+2/3'
loop_
_atom_type_symbol
_atom_type_oxidation_number
Tl1+ 1
S2- -2
loop_
_atom_site_label
_atom_site_type_symbol
_atom_site_symmetry_multiplicity
_atom_site_Wyckoff_symbol
_atom_site_fract_x
_atom_site_fract_y
_atom_site_fract_z
_atom_site_B_iso_or_equiv
_atom_site_occupancy
_atom_site_attached_hydrogens
Tl1 Tl1+ 9 b .1257(1) .2030(1) -.0781(1) .0457(4) 1. 0
Tl2 Tl1+ 9 b .4685(1) .9065(1) -.0969(1) .0452(4) 1. 0
Tl3 Tl1+ 9 b .8065(1) .5719(1) -.0992(1) .0449(4) 1. 0
Tl4 Tl1+ 9 b .2407(1) .1060(1) .1046(1) .0451(4) 1. 0
Tl5 Tl1+ 9 b .5399(1) .7488(1) .0846(1) .0453(4) 1. 0
Tl6 Tl1+ 9 b .8712(1) .4124(1) .0850(1) .0457(4) 1. 0
S1 S2- 3 a 0 0 .0365(14) .047(4) 1. 0
S2 S2- 3 a .3333 .6667 -.0255(10) .047(3) 1. 0
S3 S2- 3 a .6667 .3333 -.0261(10) .048(4) 1. 0
S4 S2- 9 b .0025(8) .6630(10) .0269(7) .041(2) 1. 0
S5 S2- 9 b .9992(9) .3234(10) -.0200(6) .047(3) 1. 0
#End of TTdata_59735-ICSD