
#(C) 2018 by FIZ Karlsruhe - Leibniz Institute for Information Infrastructure.  All rights reserved.
data_73733-ICSD
_database_code_ICSD 73733
_audit_creation_date 1995-01-10
_audit_update_record 1999-11-30
_chemical_name_systematic 'Osmium(VIII) dioxide tetrafluoride'
_chemical_formula_structural 'Os O2 F4'
_chemical_formula_sum 'F4 O2 Os1'
_exptl_crystal_density_diffrn 5.27
_cell_measurement_temperature 119.
_publ_section_title 'Os O3 F2 and Os O2 F4, preparation and crystal structures'
loop_
_citation_id
_citation_journal_full
_citation_year
_citation_journal_volume
_citation_page_first
_citation_page_last
_citation_journal_id_ASTM
primary 'Chemische Berichte' 1993 126 1331 1336 CHBEAM
loop_
_publ_author_name
'Bougon, R.'
'Buu, B.'
'Seppelt, K.'
_cell_length_a 4.893(2)
_cell_length_b 4.893(2)
_cell_length_c 27.1900(10)
_cell_angle_alpha 90.
_cell_angle_beta 90.
_cell_angle_gamma 120.
_cell_volume 563.75
_cell_formula_units_Z 6
_symmetry_space_group_name_H-M 'P 61'
_symmetry_Int_Tables_number 169
_refine_ls_R_factor_all 0.083
loop_
_symmetry_equiv_pos_site_id
_symmetry_equiv_pos_as_xyz
1 'x-y, x, z'
2 'y, -x+y, z'
3 '-x, -y, z+1/2'
4 '-x+y, -x, z+2/3'
5 '-y, x-y, z+1/3'
6 'x, y, z'
loop_
_atom_type_symbol
_atom_type_oxidation_number
Os8+ 8
O2- -2
F1- -1
O2- -2
F1- -1
O2- -2
F1- -1
loop_
_atom_site_label
_atom_site_type_symbol
_atom_site_symmetry_multiplicity
_atom_site_Wyckoff_symbol
_atom_site_fract_x
_atom_site_fract_y
_atom_site_fract_z
_atom_site_B_iso_or_equiv
_atom_site_occupancy
_atom_site_attached_hydrogens
Os1 Os8+ 6 a 0.0023(3) 0.4589(2) 0.8333 . 1. 0
O1 O2- 6 a 0.2626(77) 0.7319(52) 0.7967(9) . 1. 0
F1 F1- 6 a 0.2858(50) 0.4494(87) 0.8748(11) . 0.5 0
O2 O2- 6 a 0.2858(50) 0.4494(87) 0.8748(11) . 0.5 0
F2 F1- 6 a -.0548(54) 0.1260(51) 0.7956(7) . 0.5 0
O3 O2- 6 a -.0548(54) 0.1260(51) 0.7956(7) . 0.5 0
F3 F1- 6 a -.0472(50) 0.7581(46) 0.8739(7) . 1. 0
F4 F1- 6 a 0.6470(92) 0.4393(89) 0.7975(15) . 1. 0
F5 F1- 6 a 0.6823(58) 0.1462(58) 0.8718(8) . 1. 0
loop_
_atom_site_aniso_label
_atom_site_aniso_type_symbol
_atom_site_aniso_U_11
_atom_site_aniso_U_22
_atom_site_aniso_U_33
_atom_site_aniso_U_12
_atom_site_aniso_U_13
_atom_site_aniso_U_23
Os1 Os8+ 0.0186 0.0106 0.0145 0.0045 -.0004 0
O1 O2- 0.0557(17) 0.0128(8) 0.0084(7) 0.0099(9) -.0060(8) 0.0069(6)
F1 F1- 0.0121(7) 0.0930(22) 0.0385(12) 0.0314(11) -.0056(8) 0.0002(14)
O2 O2- 0.0121(7) 0.0930(22) 0.0385(12) 0.0314(11) -.0056(8) 0.0002(14)
F2 F1- 0.0277(9) 0.0238(8) 0.0103(6) 0.0081(6) -.0011(7) 0.0048(6)
O3 O2- 0.0277(9) 0.0238(8) 0.0103(6) 0.0081(6) -.0011(7) 0.0048(6)
F3 F1- 0.0357(10) 0.0222(7) 0.0163(6) 0.0264(8) 0.0010(6) -.0014(6)
F4 F1- 0.0556(18) 0.0553(18) 0.0497(17) 0.0225(15) -.0283(15) -.0247(15)
F5 F1- 0.0349(10) 0.0281(10) 0.0159(7) 0.0126(9) 0.0077(7) 0.0020(7)
#End of TTdata_73733-ICSD