
#(C) 2017 by FIZ Karlsruhe - Leibniz Institute for Information Infrastructure.  All rights reserved.
data_24645-ICSD
_database_code_ICSD 24645
_audit_creation_date 1986-09-26
_audit_update_record 2012-08-01
_chemical_name_systematic 'Sulfur(IV) oxide'
_chemical_formula_structural 'S O2'
_chemical_formula_sum 'O2 S1'
_exptl_crystal_density_diffrn 1.92
_cell_measurement_temperature 143.
_publ_section_title 'The Crystal Structure of Sulfur Dioxide'
loop_
_citation_id
_citation_journal_full
_citation_year
_citation_journal_volume
_citation_page_first
_citation_page_last
_citation_journal_id_ASTM
primary 'Acta Crystallographica (1,1948-23,1967)' 1952 5 372 374 ACCRA9
loop_
_publ_author_name
'Post, B.'
'Schwartz, R.S.'
'Fankuchen, I.'
_cell_length_a 6.07(1)
_cell_length_b 5.94(1)
_cell_length_c 6.14(1)
_cell_angle_alpha 90.
_cell_angle_beta 90.
_cell_angle_gamma 90.
_cell_volume 221.38
_cell_formula_units_Z 4
_symmetry_space_group_name_H-M 'A b a 2'
_symmetry_Int_Tables_number 41
_refine_ls_R_factor_all 0.09
loop_
_symmetry_equiv_pos_site_id
_symmetry_equiv_pos_as_xyz
1 'x+1/2, -y+1/2, z'
2 '-x+1/2, y+1/2, z'
3 '-x, -y, z'
4 'x, y, z'
5 'x+1/2, -y, z+1/2'
6 '-x+1/2, y, z+1/2'
7 '-x, -y+1/2, z+1/2'
8 'x, y+1/2, z+1/2'
loop_
_atom_type_symbol
_atom_type_oxidation_number
S4+ 4
O2- -2
loop_
_atom_site_label
_atom_site_type_symbol
_atom_site_symmetry_multiplicity
_atom_site_Wyckoff_symbol
_atom_site_fract_x
_atom_site_fract_y
_atom_site_fract_z
_atom_site_B_iso_or_equiv
_atom_site_occupancy
_atom_site_attached_hydrogens
S1 S4+ 4 a 0 0 0 2.5 1. 0
O1 O2- 8 b 0.14 0.15 0.118(3) 2.5 1. 0
#End of TTdata_24645-ICSD