
#(C) 2018 by FIZ Karlsruhe - Leibniz Institute for Information Infrastructure.  All rights reserved.
data_68630-ICSD
_database_code_ICSD 68630
_audit_creation_date 1991-07-10
_chemical_name_systematic 'Lead disulfate(V) tetrahydrate'
_chemical_formula_structural 'Pb (S2 O6) (H2 O)4'
_chemical_formula_sum 'H8 O10 Pb1 S2'
_exptl_crystal_density_diffrn 3.24
_publ_section_title
'Crystal structures of strontium and lead dithionate tetrahydrate'
loop_
_citation_id
_citation_journal_full
_citation_year
_citation_journal_volume
_citation_page_first
_citation_page_last
_citation_journal_id_ASTM
primary 'Acta Crystallographica, Section B: Structural Science' 1991 47 12 17
ASBSDK
loop_
_publ_author_name
'de Matos Gomes, E.'
_cell_length_a 6.3413(9)
_cell_length_b 6.3413(9)
_cell_length_c 6.4622
_cell_angle_alpha 90.
_cell_angle_beta 90.
_cell_angle_gamma 120.
_cell_volume 225.04
_cell_formula_units_Z 1
_symmetry_space_group_name_H-M 'P 6 2 2'
_symmetry_Int_Tables_number 177
_refine_ls_R_factor_all 0.015
loop_
_symmetry_equiv_pos_site_id
_symmetry_equiv_pos_as_xyz
1 'x, x-y, -z'
2 '-x+y, y, -z'
3 '-y, -x, -z'
4 '-x, -x+y, -z'
5 'x-y, -y, -z'
6 'y, x, -z'
7 'x-y, x, z'
8 'y, -x+y, z'
9 '-x, -y, z'
10 '-x+y, -x, z'
11 '-y, x-y, z'
12 'x, y, z'
loop_
_atom_type_symbol
_atom_type_oxidation_number
Pb2+ 2
S5+ 5
O2- -2
H1+ 1
loop_
_atom_site_label
_atom_site_type_symbol
_atom_site_symmetry_multiplicity
_atom_site_Wyckoff_symbol
_atom_site_fract_x
_atom_site_fract_y
_atom_site_fract_z
_atom_site_B_iso_or_equiv
_atom_site_occupancy
_atom_site_attached_hydrogens
Pb1 Pb2+ 1 a 0 0 0 0.0184(4) 1. 0
S1 S5+ 12 n 0.689(1) 0.634(1) 0.49(1) 0.023(2) 0.166 0
O1 O2- 12 n 0.733(5) 0.795(6) 0.666(4) 0.021(7) 0.166 0
O2 O2- 12 n 0.698(7) 0.741(6) 0.281(4) 0.034(9) 0.166 0
O3 O2- 12 n 0.824(5) 0.503(6) 0.49(2) 0.050(8) 0.166 0
O4 O2- 12 n 0.199(3) 0.744(3) 0.874(2) 0.036(4) 0.333 0
#End of TTdata_68630-ICSD