
#(C) 2018 by FIZ Karlsruhe - Leibniz Institute for Information Infrastructure.  All rights reserved.
data_259183-ICSD
_database_code_ICSD 259183
_audit_creation_date 2018-08-01
_chemical_name_systematic 'Magnesium silver antimony - alpha phase'
_chemical_formula_structural 'Mg Ag Sb'
_chemical_formula_sum 'Ag1 Mg1 Sb1'
_exptl_crystal_density_diffrn 6.33
_cell_measurement_temperature 300.
_publ_section_title

;
Elaborating the crystal structures of MgAgSb thermoelectric compound:
polymorphs and atomic disorders
;
loop_
_citation_id
_citation_journal_full
_citation_year
_citation_journal_volume
_citation_page_first
_citation_page_last
_citation_journal_id_ASTM
primary 'Chemistry of Materials' 2017 29 6378 6388 CMATEX
loop_
_publ_author_name
'Mi, Jian-Li'
'Ying, Ping-Jun'
'Sist, Mattia'
'Reardon, Hazel'
'Zhang, Peng'
'Zhu, Tie-Jun'
'Zhao, Xin-Bing'
'Brummerstedt Iversen, Bo'
_cell_length_a 9.1631(2)
_cell_length_b 9.1631(2)
_cell_length_c 12.701(1)
_cell_angle_alpha 90.
_cell_angle_beta 90.
_cell_angle_gamma 90.
_cell_volume 1066.41
_cell_formula_units_Z 16
_symmetry_space_group_name_H-M 'I -4 c 2'
_symmetry_Int_Tables_number 120
_refine_ls_R_factor_all 0.116
loop_
_symmetry_equiv_pos_site_id
_symmetry_equiv_pos_as_xyz
1 'y, x, -z+1/2'
2 '-y, -x, -z+1/2'
3 'y, -x, -z'
4 '-y, x, -z'
5 'x, -y, z+1/2'
6 '-x, y, z+1/2'
7 '-x, -y, z'
8 'x, y, z'
9 'y+1/2, x+1/2, -z'
10 '-y+1/2, -x+1/2, -z'
11 'y+1/2, -x+1/2, -z+1/2'
12 '-y+1/2, x+1/2, -z+1/2'
13 'x+1/2, -y+1/2, z'
14 '-x+1/2, y+1/2, z'
15 '-x+1/2, -y+1/2, z+1/2'
16 'x+1/2, y+1/2, z+1/2'
loop_
_atom_type_symbol
_atom_type_oxidation_number
Mg0+ 0
Sb0+ 0
Ag0+ 0
loop_
_atom_site_label
_atom_site_type_symbol
_atom_site_symmetry_multiplicity
_atom_site_Wyckoff_symbol
_atom_site_fract_x
_atom_site_fract_y
_atom_site_fract_z
_atom_site_B_iso_or_equiv
_atom_site_occupancy
_atom_site_attached_hydrogens
Mg1 Mg0+ 16 i -0.0215(9) 0.2808(8) 0.1144(5) 0.009(2) 1. 0
Sb1 Sb0+ 16 i 0.2353(2) 0.4755(2) 0.1164(1) 0.013(1) 1. 0
Ag1 Ag0+ 4 a 0 0 0.25 0.047(3) 1. 0
Ag2 Ag0+ 4 b 0 0 0 0.012(1) 1. 0
Ag3 Ag0+ 8 e 0.2262(3) 0.2262(3) 0.25 0.013(1) 1. 0
#End of TTdata_259183-ICSD