#------------------------------------------------------------------------------
#$Date: 2015-10-14 05:19:49 +0300 (Wed, 14 Oct 2015) $
#$Revision: 167931 $
#$URL: svn://www.crystallography.net/cod/cif/2/24/12/2241204.cif $
#------------------------------------------------------------------------------
#
# This file is available in the Crystallography Open Database (COD),
# http://www.crystallography.net/. The original data for this entry
# were provided by IUCr Journals, http://journals.iucr.org/.
#
# The file may be used within the scientific community so long as
# proper attribution is given to the journal article from which the
# data were obtained.
#
data_2241204
loop_
_publ_author_name
'Bykov, Maxim'
'Bykova, Elena'
'Dyadkin, Vadim'
'Baumann, Dominik'
'Schnick, Wolfgang'
'Dubrovinsky, Leonid'
'Dubrovinskaia, Natalia'
_publ_section_title
;
 Crystal structures of cristobalite-type and coesite-type PON redetermined
 on the basis of single-crystal X-ray diffraction data
;
_journal_issue                   11
_journal_name_full               'Acta Crystallographica Section E'
_journal_page_first              1325
_journal_page_last               1327
_journal_paper_doi               10.1107/S205698901501899X
_journal_volume                  71
_journal_year                    2015
_chemical_formula_moiety         'N O P'
_chemical_formula_structural     'P O N'
_chemical_formula_sum            'N O P'
_chemical_formula_weight         60.98
_chemical_name_common            'Phosphorus oxonitride'
_chemical_name_systematic
;
Phosphorus oxonitride
;
_space_group_crystal_system      tetragonal
_space_group_IT_number           122
_space_group_name_Hall           'I -4 2bw'
_space_group_name_H-M_alt        'I -4 2 d'
_symmetry_space_group_name_Hall  'I -4 2bw'
_symmetry_space_group_name_H-M   'I -4 2 d'
_cell_angle_alpha                90
_cell_angle_beta                 90
_cell_angle_gamma                90
_cell_formula_units_Z            4
_cell_length_a                   4.6135(2)
_cell_length_b                   4.6135(2)
_cell_length_c                   6.9991(5)
_cell_measurement_reflns_used    431
_cell_measurement_temperature    293(2)
_cell_measurement_theta_max      28.1970
_cell_measurement_theta_min      5.2760
_cell_volume                     148.972(14)
_computing_cell_refinement
;
<i>CrysAlis PRO</i> (Agilent, 2014)
;
_computing_data_collection
;
<i>CrysAlis PRO</i> (Agilent, 2014)
;
_computing_data_reduction
;
<i>CrysAlis PRO</i> (Agilent, 2014)
;
_computing_molecular_graphics
;
DIAMOND (Brandenburg, 2006)
;
_computing_publication_material
;
<i>publCIF</i> (Westrip, 2010)
;
_computing_structure_refinement
;
SHELXL-2014/7 (Sheldrick, 2015)
;
_computing_structure_solution
;
SHELXS (Sheldrick, 2008)
;
_diffrn_ambient_temperature      293
_diffrn_detector_area_resol_mean 16.6
_diffrn_measured_fraction_theta_full 1.000
_diffrn_measured_fraction_theta_max 0.969
_diffrn_measurement_device       'three-circle diffractometer'
_diffrn_measurement_method       '\w scans'
_diffrn_radiation_type           MoK\a
_diffrn_radiation_wavelength     0.71069
_diffrn_reflns_av_R_equivalents  0.0164
_diffrn_reflns_limit_h_max       5
_diffrn_reflns_limit_h_min       -5
_diffrn_reflns_limit_k_max       6
_diffrn_reflns_limit_k_min       -5
_diffrn_reflns_limit_l_max       9
_diffrn_reflns_limit_l_min       -5
_diffrn_reflns_number            445
_diffrn_reflns_theta_full        25.000
_diffrn_reflns_theta_max         28.268
_diffrn_reflns_theta_min         5.293
_exptl_absorpt_coefficient_mu    1.241
_exptl_absorpt_correction_T_max  1.00000
_exptl_absorpt_correction_T_min  0.79058
_exptl_absorpt_correction_type   multi-scan
_exptl_absorpt_process_details
;
(<i>CrysAlis PRO</i>; Agilent, 2014)
;
_exptl_crystal_colour            colourless
_exptl_crystal_density_diffrn    2.719
_exptl_crystal_description       prism
_exptl_crystal_F_000             120
_exptl_crystal_size_max          0.020
_exptl_crystal_size_mid          0.018
_exptl_crystal_size_min          0.015
_refine_diff_density_max         0.210
_refine_diff_density_min         -0.284
_refine_ls_abs_structure_details
;
 Refined as a perfect inversion twin.
;
_refine_ls_abs_structure_Flack   0.5
_refine_ls_extinction_method     none
_refine_ls_goodness_of_fit_ref   1.453
_refine_ls_matrix_type           full
_refine_ls_number_parameters     8
_refine_ls_number_reflns         92
_refine_ls_number_restraints     0
_refine_ls_restrained_S_all      1.453
_refine_ls_R_factor_all          0.0159
_refine_ls_R_factor_gt           0.0159
_refine_ls_shift/su_max          0.000
_refine_ls_shift/su_mean         0.000
_refine_ls_structure_factor_coef Fsqd
_refine_ls_weighting_details
'w=1/[\s^2^(Fo^2^)+(0.0229P)^2^+0.0508P] where P=(Fo^2^+2Fc^2^)/3'
_refine_ls_weighting_scheme      calc
_refine_ls_wR_factor_gt          0.0429
_refine_ls_wR_factor_ref         0.0429
_reflns_number_gt                92
_reflns_number_total             92
_reflns_threshold_expression     'I > 2\s(I)'
_cod_data_source_file            wm5203sup1.cif
_cod_data_source_block           cri-PON
_cod_original_cell_volume        148.972(17)
_cod_database_code               2241204
_shelx_space_group_comment
;
The symmetry employed for this shelxl refinement is uniquely defined
by the following loop, which should always be used as a source of
symmetry information in preference to the above space-group names.
They are only intended as comments.
;
_shelx_hkl_file
;
   0   0   2-1.11003 1.06461   2
   0   0   4 183.044 5.23024   2
   0   0   6 2.65167 2.23261   2
   0   0   8 6006.83 43.9038   2
   0   0   8 5844.11 52.9419   3
   1   0  -1 14711.0 33.6660   1
   1   0   1 14736.6 32.2099   2
   0   1  -1 15224.5 33.2717   1
   1   0   1 14720.6 32.6634   1
   1   0   1 14422.3 21.5520   3
   0   1   1 14819.9 30.0043   1
   0  -1   1 14296.1 38.1470   3
   1   0   3 1301.16 12.9566   3
   0  -1   3 1318.33 14.9342   3
   0  -1   3 1323.12 9.95855   2
  -1   0   3 1322.35 11.5096   2
   0   1   3 1308.11 12.7778   2
   1   0   3 1284.39 12.7098   2
  -1   0  -3 1373.81 9.36303   1
   1   0  -3 1293.15 10.3345   1
   0   1  -3 1231.50 10.7345   1
   0   1   3 1338.36 8.04356   1
   1   0   5 1345.35 16.7533   2
   0   1   5 1350.24 16.9733   2
  -1   0   5 1318.08 14.8641   2
   1   0   5 1410.14 18.9438   3
   0  -1   5 1471.72 14.9057   2
   0  -1   5 1290.16 19.4635   3
   0  -1   7 2603.48 32.6126   3
   1   0   7 2503.45 30.7152   3
   1   0   7 2622.61 28.3386   2
   0   1   7 2617.80 28.5170   2
  -1   0   7 2681.10 26.3163   2
   1   0   9 1207.73 25.2914   3
   0   1   9 1223.92 22.4922   2
   1   0   9 1296.26 23.0923   2
  -1   1   8-0.41894 2.42388   2
   1  -1   8 2.40015 2.81089   3
   1  -1   6 4744.43 39.5866   3
   1  -1   6 4882.72 32.6614   2
  -1   1   6 4914.55 34.2929   2
  -1   1   4 2.23131 1.07650   1
   1  -1   4-0.77848 1.61460   2
  -1   1   4 1.84810 1.43522   2
   1  -1   4 0.08473 1.83274   3
   1   1  -4 2.73718 1.28868   1
  -1   1   2 16046.7 37.8919   1
   1  -1   2 16154.3 39.0131   2
   1   1  -2 15918.8 44.5503   1
   1  -1   2 16268.4 45.1949   3
  -1   1   0-1.74581 1.55956   1
  -1  -1   0 3.27695 1.37384   3
   1   1   0 1.64136 1.01106   2
   1   1   0-1.59856 1.47596   1
  -1  -1   2 15919.7 46.0755   3
  -1  -1   2 15928.9 25.9308   2
   1   1   2 15987.0 40.8345   2
  -1   1  -2 15990.5 41.7611   1
   1   1   2 16135.9 38.0057   1
  -1  -1   4 0.06655 1.90652   3
  -1  -1   4 3.90868 1.27478   2
  -1   1  -4 0.13800 1.39704   1
   1   1   4 1.21324 2.08219   2
   1   1   6 4962.10 37.2929   2
  -1  -1   6 5021.08 43.2674   3
   1   1   8-4.43934 3.09163   2
  -1  -1   8-4.04442 3.26377   3
   0   2   0 1796.56 10.3502   2
   2   0   0 1905.01 15.5441   2
   2   0   0 1778.38 16.5977   1
   0   2   2 1150.09 11.6982   1
   2   0   2 1312.50 13.9157   1
   0   2  -2 1196.43 13.5880   1
   0   2   2 1325.20 12.6192   2
   0  -2   2 1399.73 17.1238   3
   2   0   2 1306.63 13.8682   2
   2   0   2 1459.46 9.50847   3
   2   0  -2 1260.93 14.2664   1
  -2   0   4 10862.5 39.9500   2
   2   0   4 11006.9 41.1630   3
   0  -2   4 10920.4 54.8624   3
   2   0  -4 10923.9 42.4475   1
   0   2   4 10974.7 46.3194   2
  -2   0  -4 10920.3 36.6711   1
   2   0   4 10962.1 46.7781   2
   0   2  -4 10812.5 45.0772   1
   0  -2   6 191.560 9.09060   3
   2   0   6 197.494 7.60936   3
   2   0   6 178.849 7.58147   2
  -2   0   6 190.489 6.51073   2
   0   2   6 181.811 7.51094   2
  -2   0   8 1031.90 23.8775   3
   2   0   8 1027.86 20.0078   2
   0  -2   8 1067.97 23.8614   3
   0   2   8 1039.33 20.3844   2
   2  -1   7 956.428 17.4200   2
   2  -1   7 835.793 17.5097   3
  -1   2   7 853.134 16.7336   2
   1  -2   7 822.474 19.0789   3
  -2   1   7 890.197 16.1803   2
   2  -1   5 4018.10 30.4700   2
   1  -2   5 3730.21 24.9246   2
   1  -2   5 3937.26 35.9684   3
   1   2  -5 3839.20 29.4269   1
   2  -1   5 3804.54 30.6126   3
  -1   2   5 3728.62 29.9331   2
  -2   1   5 3803.64 29.2125   2
   1  -2   3 6919.77 28.8386   2
   2  -1   3 6852.34 32.5027   3
   1  -2   3 7036.99 40.9875   3
   2  -1   3 7273.85 35.7073   2
   2   1  -3 6920.18 36.6684   1
  -2   1   3 6949.51 31.8789   1
   1   2  -3 6927.16 37.6468   1
  -1   2   3 6965.18 32.3873   1
  -1   2   3 7046.76 34.5354   2
   2  -1   1 3249.95 22.2598   2
   2   1  -1 3143.39 16.9088   2
   1   2  -1 3083.67 9.44115   2
   2   1  -1 3232.51 24.2641   1
  -2   1   1 3105.32 21.3687   4
  -2   1   1 3264.56 21.7487   1
  -1   2   1 3162.23 22.5438   1
   1   2  -1 3151.05 24.0764   1
  -1   2  -1 3211.54 23.8053   1
   2   1   1 3155.60 23.2733   1
   1   2   1 3035.98 16.7083   2
  -2   1  -1 3154.11 21.7841   1
  -1  -2   1 3279.92 23.8402   3
   2   1   1 3232.06 19.7776   2
  -2  -1   1 3198.27 17.9417   3
   1   2   1 3184.34 23.1387   1
   2   1   3 6869.21 35.2178   2
   1   2   3 7227.73 32.6836   1
  -1  -2   3 7055.30 40.9741   3
  -2   1  -3 7033.32 34.5181   1
  -1   2  -3 6989.44 37.7716   1
   2   1   3 6969.69 32.8694   1
  -2  -1   3 7045.76 37.9684   3
   1   2   3 7110.15 34.8445   2
  -1  -2   5 3859.49 36.0322   3
   2   1   5 3955.29 32.1318   2
  -2  -1   5 3828.98 35.3012   3
   1   2   5 3934.05 31.9953   2
   1   2   7 897.654 18.1253   2
  -1  -2   7 887.832 20.5218   3
  -2  -1   7 912.420 20.8771   3
   2   1   7 940.809 18.6642   2
  -2   2   8 1942.07 27.3167   2
  -2   2   6 4.72119 2.46019   2
   2  -2   6 0.05118 3.43905   3
   2  -2   6 4.69577 2.66751   2
   2  -2   4 3495.68 29.9915   3
   2  -2   4 3567.20 27.2708   2
   2   2  -4 3578.50 30.4981   1
  -2   2   4 3640.04 26.5411   1
   2   2  -2-2.46834 2.03811   1
   2  -2   2-0.17188 2.24686   3
   2  -2   2 2.53139 1.71176   2
  -2   2   2 3.77376 2.39074   1
   2   2   0 8511.59 29.3895   2
   2   2   0 8422.42 44.9023   1
  -2   2   0 8507.87 43.3286   1
  -2   2  -2 1.53512 2.29859   1
   2   2   2 1.77882 1.73923   2
   2   2   2 0.40114 1.89911   1
  -2  -2   2 2.68288 1.93436   3
  -2  -2   4 3636.58 32.7173   3
   2   2   4 3696.21 29.5627   2
  -2   2  -4 3652.26 30.7407   1
  -2  -2   6 0.95427 2.82463   3
   2   2   6-1.56416 3.20970   2
   3   0   1 924.998 14.0595   2
   3   0  -1 826.144 14.5968   1
   3   0   1 948.559 15.2038   1
   0   3   1 944.667 14.8485   1
   0   3  -1 911.848 15.3827   1
   0   3   1 988.934 10.9126   2
   0   3  -1 972.277 7.99755   2
   0   3  -3 5003.66 37.5217   1
   0  -3   3 4926.01 39.5465   3
   3   0  -3 4988.53 36.3623   1
  -3   0  -3 4880.05 31.1243   1
   3   0   3 4880.45 34.0515   2
  -3   0  -3 4850.40 30.9259   4
   0   3   3 4919.71 30.7729   2
   0   3   3 4878.32 31.6436   1
  -3   0   5 3022.83 25.6922   2
   0  -3   5 2900.41 34.5459   3
   3   0   5 2879.02 29.2279   2
   0   3   5 3018.37 28.7807   2
   0   3  -5 2989.97 30.1826   1
  -3   0   7 434.310 15.1115   3
   3   0   7 422.850 13.1995   2
   0  -3   7 424.161 15.5823   3
   0   3   7 395.691 12.3825   2
   3  -1   8 146.125 8.87120   2
   1  -3   6 2570.97 34.1880   3
   3  -1   6 2402.73 28.4412   2
  -1   3   6 2475.28 28.2593   2
  -3   1   6 2566.81 27.5686   2
   1  -3   4 602.075 14.8217   3
   3   1  -4 613.889 13.5110   1
   3  -1   4 599.582 13.0309   2
  -3   1   4 600.264 11.7785   4
   1   3  -4 572.123 13.2931   1
  -3   1   4 616.681 11.8170   1
  -1   3   4 634.976 12.7384   2
  -1   3   2 5414.41 31.4385   2
  -3   1   2 5398.89 34.4268   4
  -3   1   2 5450.74 34.3940   1
   1  -3   2 5561.63 40.7060   3
   3   1  -2 5409.03 39.2865   1
  -1   3   2 5369.98 35.7901   1
   3  -1   2 5465.54 35.9309   2
   1   3  -2 5514.67 39.8690   1
  -3   1   0 1435.61 17.6486   1
   3   1   0 1466.31 19.9674   1
   3   1   0 1571.06 17.1064   2
  -3   1   0 1484.03 18.0556   4
  -1   3   0 1472.40 19.7961   1
   1   3   0 1448.63 10.7034   2
   1   3   0 1493.91 20.0757   1
  -1  -3   2 5592.98 40.0889   3
  -3  -1   2 5568.81 29.9860   3
   3   1   2 5354.44 37.2512   1
  -1   3  -2 5504.50 39.7964   1
   3   1   2 5242.19 33.2096   2
  -3   1  -2 5535.18 35.1962   1
   1   3   2 5437.98 29.3125   2
   1   3   2 5384.74 35.7810   1
  -3   1  -4 581.637 12.0513   1
  -1  -3   4 609.635 15.1311   3
   3   1   4 549.107 11.2547   1
  -1   3  -4 611.346 13.3497   1
  -3  -1   4 574.931 12.9680   3
   3   1   4 559.843 12.2996   2
   1   3   4 610.821 12.3880   2
  -3  -1   6 2525.76 32.8760   3
   3   1   6 2473.65 29.4071   2
   1   3   6 2553.66 29.6027   2
  -1  -3   6 2414.53 33.9728   3
   2  -3   7 1500.77 27.0212   3
  -2   3   7 1614.30 24.9638   2
  -3   2   7 1585.06 24.5229   2
  -3   2   5 909.197 17.1212   2
   2  -3   5 832.170 18.0033   3
   3   2  -5 860.658 17.3883   1
   3  -2   5 843.723 16.2241   2
   2   3  -5 839.708 17.4452   1
  -2   3   5 883.154 17.0157   2
  -2   3   3 1096.25 16.2994   2
   2  -3   3 1054.43 18.4143   3
  -3   2   3 1050.27 16.8715   1
   3  -2   3 1061.01 16.7657   2
   3   2  -3 1093.63 19.1549   1
   2   3  -3 1080.90 19.3474   1
  -2   3   3 1014.24 16.6935   1
  -3   2   1 5185.99 37.5025   1
   3   2  -1 5289.87 28.0011   2
   3   2  -1 5193.28 40.9267   1
   2   3  -1 5083.19 40.5184   1
  -2   3   1 5124.14 38.6524   1
  -3   2  -1 5011.47 37.4157   1
   3   2   1 5094.34 39.3730   1
   3   2   1 5327.95 31.8066   2
   2   3   1 5196.53 26.8004   2
   2   3   1 5274.02 40.2501   1
  -2   3  -1 5184.22 40.0769   1
  -2  -3   1 5237.09 36.0358   3
  -2  -3   3 1116.67 19.2867   3
  -3  -2   3 1155.07 17.2480   3
   3   2   3 1129.65 17.9672   1
  -2   3  -3 1083.04 19.7821   1
   3   2   3 1046.09 15.7141   2
   2   3   3 1144.60 17.8883   1
   2   3   3 1084.05 15.4431   2
  -3   2  -3 1076.74 18.2426   1
  -2  -3   5 856.260 19.3331   3
  -3  -2   5 862.630 18.0020   3
  -2   3  -5 847.677 17.1422   1
   3   2   5 828.455 16.2325   2
   2   3   5 869.017 16.5045   2
  -2  -3   7 1634.90 29.8718   3
  -3  -2   7 1585.50 28.3963   3
   3   2   7 1572.13 25.4812   2
   2   3   7 1614.76 25.8522   2
  -3   3   6 2199.72 29.8092   2
   3  -3   4 4.87904 2.18261   2
  -3   3   4-4.23190 2.86827   2
   3   3  -4 3.76250 3.54367   1
   3   3  -2 3531.62 36.8129   1
  -3   3   2 3643.40 35.2875   1
  -3   3   0 4.66559 3.18582   1
   3   3   0 0.75658 2.81235   1
   3   3   2 3539.04 35.6770   1
   3   3   2 3551.99 27.3910   2
  -3   3  -2 3406.63 35.3792   1
   3   3   4 5.59115 2.71626   2
  -3  -3   4 3.33064 3.22490   3
  -3   3  -4 5.65632 3.66927   1
  -3  -3   6 2169.96 33.3097   3
   3   3   6 2180.98 28.6831   2
   0   4   0 4211.16 38.2103   1
   4   0   0 4262.50 38.5301   1
   4   0   0 4153.50 34.4336   2
   0   4   2 1196.77 19.5549   1
   0   4  -2 1326.59 22.5630   1
   4   0  -2 1292.79 21.4801   1
  -4   0  -2 1322.45 19.4576   1
   4   0   2 1317.74 19.9463   2
  -4   0  -2 1325.83 19.4690   4
   0   4   2 1307.03 15.8249   2
  -4   0  -4 2928.18 28.0791   4
   0  -4   4 2737.10 35.4398   3
   4   0  -4 2903.22 32.2933   1
   4   0   4 2986.21 32.3360   2
   0   4   4 2864.07 27.8999   2
  -4   0  -4 2854.39 27.5863   1
   0   4  -4 2817.43 33.7711   1
   0  -4   6 494.577 16.7329   3
  -4   0   6 541.076 16.2233   3
   4   0   6 492.083 14.4915   2
   0   4   6 498.716 13.6415   2
   4   1  -5 630.109 15.9256   1
   1  -4   5 626.761 17.8879   3
   4  -1   5 619.068 15.6117   2
  -4   1   5 661.408 14.6532   2
   1   4  -5 724.581 17.9773   1
  -1   4   5 646.711 14.6099   2
  -4   1   3 933.702 17.0725   1
  -4   1   3 954.637 17.3265   4
  -1   4   3 808.440 15.4881   1
   4   1  -3 945.304 19.5651   1
   1  -4   3 856.829 19.3156   3
   4  -1   3 907.439 17.4164   2
   1   4  -3 937.336 19.3553   1
  -1   4   3 991.775 16.0060   2
  -4   1   1 3185.14 31.1248   4
  -4   1   1 3236.69 31.2532   1
   4   1  -1 3308.62 36.1317   1
   4  -1   1 3151.37 31.4282   2
   1   4  -1 3110.71 34.6469   1
  -1   4   1 3229.73 24.9270   2
  -4   1  -1 3199.35 30.8119   4
   4   1   1 3245.03 34.6693   1
  -1   4  -1 2990.85 32.8121   1
   4   1   1 3377.38 30.4369   2
  -4   1  -1 3275.95 31.3631   1
   1   4   1 3059.88 32.8922   1
  -1  -4   3 858.487 19.1407   3
   4   1   3 892.944 17.4883   1
  -1   4  -3 813.452 17.5940   1
   4   1   3 882.880 16.4578   2
  -4   1  -3 929.223 16.9583   1
   1   4   3 981.183 15.2471   2
   1   4   3 890.536 16.9088   1
  -1   4  -5 665.723 17.3102   1
  -1  -4   5 641.427 17.9164   3
   4   1   5 651.496 15.7431   2
   1   4   5 657.578 14.8104   2
   2  -4   6 108.104 8.45144   3
   4  -2   6 132.124 7.90793   2
  -4   2   6 138.596 8.02223   2
   2  -4   4 1301.21 24.0509   3
  -4   2   4 1551.46 23.6354   1
   4  -2   4 1323.36 21.9393   2
   4   2  -4 1495.03 25.6971   1
   2   4  -4 1440.23 25.4759   1
  -2   4   4 1644.93 23.3526   2
  -2   4   2 305.288 9.07502   2
  -4   2   2 313.718 10.7970   1
   4   2  -2 341.895 12.5101   1
  -2   4   2 343.522 11.7853   1
   2   4  -2 321.109 12.2898   1
  -4   2   0 5092.15 42.4211   1
   4   2   0 5509.44 37.0834   2
   4   2   0 5167.16 46.8549   1
  -2   4   0 5371.12 46.9688   1
   2   4   0 5180.11 46.3185   1
  -2  -4   2 321.407 11.3180   3
  -4   2  -2 316.081 11.0256   1
   4   2   2 331.150 11.8710   1
  -2   4  -2 334.202 12.6505   1
   4   2   2 336.968 9.87185   2
  -2  -4   4 1466.40 25.8023   3
  -2   4  -4 1405.84 24.9561   1
   4   2   4 1367.45 21.2939   2
   2   4   4 1440.05 20.4048   2
  -4   2  -4 1416.83 23.2575   1
  -2  -4   6 145.971 9.93987   3
   2   4   6 136.120 7.45252   2
   4  -3   5 1331.03 23.1087   2
   4   3  -5 1476.20 27.1827   1
   3   4  -5 1373.01 25.9384   1
   4   3  -3 1756.57 29.4496   1
   3   4  -3 1847.12 30.3374   1
  -3   4   3 1881.07 29.0859   1
  -4   3   3 1868.94 28.1339   1
  -4   3   1 502.933 14.9561   1
   4   3  -1 552.591 16.6556   1
   3   4  -1 558.523 16.5863   1
  -3   4   1 552.645 15.8479   1
   4   3   1 568.053 16.5093   1
   3   4   1 538.407 15.6465   1
  -3   4  -1 544.598 16.8650   1
  -4   3  -1 507.186 15.1908   1
   4   3   3 1893.98 28.7771   1
   4   3   3 1822.57 23.4731   2
   3   4   3 1687.94 26.1285   1
  -3   4  -3 1960.40 31.5443   1
  -4   3  -3 1782.03 28.0087   1
  -3  -4   5 1451.68 27.0544   3
  -3   4  -5 1505.65 28.3365   1
   4   3   5 1379.34 22.9820   2
   3   4   5 1476.29 22.6574   2
  -4   4   2 4.37584 4.05844   1
   4   4  -2 3.90435 3.20506   1
   4   4   0 395.213 14.9456   1
  -4   4   0 424.880 15.0454   1
   4   4   2-3.22018 3.78193   1
  -4   4  -2-3.87920 4.09605   1
   0   5   1 845.903 19.5220   1
   0   5  -1 890.052 20.8487   1
  -5   0  -1 881.828 18.7460   4
  -5   0   1 879.224 19.0088   4
  -5   0  -1 850.590 18.4124   1
   5   0   1 836.693 17.9765   2
  -5   0   1 830.526 18.5509   1
  -5   0  -3 1274.40 21.6346   4
  -5   0   3 1338.62 23.5793   4
  -5   0  -3 1299.37 21.7319   1
   5   0   3 1275.36 22.4970   2
  -5   0   3 1354.45 23.9184   1
   0   5   3 1205.56 22.4092   1
   0   5  -3 1284.65 26.3467   1
   0   5   5 1225.06 21.1688   2
   0   5  -5 1284.68 26.8977   1
   5   1  -4 409.073 14.3810   1
   5  -1   4 354.727 12.6978   2
  -5   1   4 394.433 13.2151   1
   1   5  -4 365.563 14.2541   1
  -1   5   4 360.218 11.0047   2
  -5   1   2 2309.08 30.8028   4
  -1   5   2 2118.30 29.5095   1
   5   1  -2 2317.84 34.4323   1
   5  -1   2 2183.58 30.0166   2
   1   5  -2 2275.87 33.9138   1
  -5   1   2 2211.17 30.0758   1
  -5   1   0 520.220 14.6455   4
  -1   5   0 499.906 15.1656   1
   5   1   0 581.673 17.4093   1
  -5   1   0 538.837 15.0950   1
   1   5   0 543.930 16.2073   1
  -1   5  -2 2229.75 34.1500   1
   5   1   2 2244.25 32.5363   1
   5   1   2 2106.26 27.8748   2
  -5   1  -2 2226.83 29.5321   1
   1   5   2 2209.68 30.9748   1
  -1   5  -4 417.920 15.6443   1
  -1  -5   4 367.599 14.7812   3
  -5   1  -4 335.814 11.7253   1
   5   1   4 367.140 12.5901   2
  -2   5   3 765.884 18.7658   1
   5   2  -3 805.901 21.3897   1
  -5   2   3 747.772 18.4869   1
   2   5  -3 811.009 21.2306   1
  -2   5   3 822.445 17.0094   2
   5   2  -1 1679.56 30.6381   1
  -2   5   1 1582.21 27.3530   1
  -5   2   1 1520.67 26.1497   1
   2   5  -1 1564.27 29.1033   1
   5   2   1 1631.54 29.6155   1
  -5   2  -1 1551.93 26.4569   1
   2   5   1 1564.42 27.6651   1
  -5   2  -3 725.538 18.1663   1
   5   2   3 807.764 20.4613   1
  -2   5  -3 783.454 20.3550   1
   5   2   3 811.709 17.6277   2
  -3   5   2 1902.22 26.4881   2
  -5   3   2 1846.99 30.9873   1
  -3   5   2 1983.34 32.9979   1
   3   5   0 17.0446 4.35215   1
  -5   3   0 11.6201 4.18258   1
  -3   5   0 22.6648 5.35455   1
   5   3   0 10.0537 4.27339   1
   5   3   2 1998.74 34.0940   1
   3   5   2 1727.51 29.6923   1
   0   6   2 229.151 12.0094   1
   0   0   0    0.00    0.00   0
;
_shelx_hkl_checksum              65181
_shelx_res_file
;
TITL criPON
CELL 0.71069 4.6135 4.6135 6.9991 90.000 90.000 90.000
ZERR 4.0000 0.0002 0.0002 0.0005 0.000 0.000 0.000
LATT -2
SYMM Y, -X, -Z
SYMM -X, -Y, Z
SYMM -Y, X, -Z
SYMM X, 0.5-Y, 0.25-Z
SYMM -X, 0.5+Y, 0.25-Z
SYMM -Y, 0.5-X, 0.25+Z
SYMM Y, 0.5+X, 0.25+Z
SFAC P O N
UNIT 4 4 4
MERG 2
FMAP 2
GRID
PLAN 20
TEMP 20
TWIN
EXYZ N O
EADP N O
L.S. 20
ACTA 50
WGHT    0.022900    0.050800
FVAR       2.56410
P     1    0.500000    0.500000    0.000000    10.25000    0.01120    0.01120 =
         0.00943    0.00000    0.00000    0.00000
N     3    0.363004    0.250000    0.125000    10.25000    0.01509    0.01494 =
         0.01650    0.00649    0.00000    0.00000
O     2    0.363004    0.250000    0.125000    10.25000    0.01509    0.01494 =
         0.01650    0.00649    0.00000    0.00000
HKLF 4
REM  criPON
REM R1 =  0.0159 for      92 Fo > 4sig(Fo)  and  0.0159 for all      92 data
REM      8 parameters refined using      0 restraints
END
WGHT      0.0228      0.0517
REM Highest difference peak  0.210,  deepest hole -0.284,  1-sigma level  0.079
Q1    1   0.0000  0.0000  0.0000  10.25000  0.05    0.21
Q2    1   0.0853  0.1728 -0.0514  11.00000  0.05    0.16
Q3    1   0.1527  0.1336 -0.0014  11.00000  0.05    0.14
Q4    1   0.0821  0.2500  0.0689  11.00000  0.05    0.13
Q5    1   0.0002  0.0612  0.1300  11.00000  0.05    0.13
Q6    1  -0.0649  0.1654  0.1093  11.00000  0.05    0.12
Q7    1   0.2504  0.3714  0.1301  11.00000  0.05    0.12
Q8    1   0.3543  0.2372  0.0540  11.00000  0.05    0.12
Q9    1   0.4753  0.3355  0.0303  11.00000  0.05    0.02
Q10   1   0.4811  0.4519  0.1242  11.00000  0.05    0.02
;
_shelx_res_checksum              14514
loop_
_space_group_symop_operation_xyz
'x, y, z'
'y, -x, -z'
'-x, -y, z'
'-y, x, -z'
'x, -y+1/2, -z+1/4'
'-x, y+1/2, -z+1/4'
'-y, -x+1/2, z+1/4'
'y, x+1/2, z+1/4'
'x+1/2, y+1/2, z+1/2'
'y+1/2, -x+1/2, -z+1/2'
'-x+1/2, -y+1/2, z+1/2'
'-y+1/2, x+1/2, -z+1/2'
'x+1/2, -y+1, -z+3/4'
'-x+1/2, y+1, -z+3/4'
'-y+1/2, -x+1, z+3/4'
'y+1/2, x+1, z+3/4'
loop_
_atom_site_type_symbol
_atom_site_label
_atom_site_fract_x
_atom_site_fract_y
_atom_site_fract_z
_atom_site_U_iso_or_equiv
_atom_site_adp_type
_atom_site_calc_flag
_atom_site_occupancy
P P 0.5000 0.5000 0.0000 0.0106(3) Uani d 1
N N 0.3630(5) 0.2500 0.1250 0.0155(5) Uani d 0.5
O O 0.3630(5) 0.2500 0.1250 0.0155(5) Uani d 0.5
loop_
_atom_site_aniso_label
_atom_site_aniso_U_11
_atom_site_aniso_U_22
_atom_site_aniso_U_33
_atom_site_aniso_U_12
_atom_site_aniso_U_13
_atom_site_aniso_U_23
P 0.0112(4) 0.0112(4) 0.0094(4) 0.000 0.000 0.000
N 0.0151(11) 0.0149(12) 0.0165(9) 0.000 0.000 0.0065(10)
O 0.0151(11) 0.0149(12) 0.0165(9) 0.000 0.000 0.0065(10)
loop_
_atom_type_symbol
_atom_type_description
_atom_type_scat_dispersion_real
_atom_type_scat_dispersion_imag
_atom_type_scat_source
P P 0.1023 0.0942 'International Tables Vol C Tables 4.2.6.8 and 6.1.1.4'
O O 0.0106 0.0060 'International Tables Vol C Tables 4.2.6.8 and 6.1.1.4'
N N 0.0061 0.0033 'International Tables Vol C Tables 4.2.6.8 and 6.1.1.4'
loop_
_geom_angle_atom_site_label_1
_geom_angle_atom_site_label_2
_geom_angle_atom_site_label_3
_geom_angle_site_symmetry_1
_geom_angle_site_symmetry_3
_geom_angle
O P N 3_665 3_665 0.0
O P O 3_665 2_565 107.86(2)
N P O 3_665 2_565 107.86(2)
O P N 3_665 2_565 107.9
N P N 3_665 2_565 107.86(2)
O P N 2_565 2_565 0.0
O P O 3_665 4_655 107.86(2)
N P O 3_665 4_655 107.86(2)
O P O 2_565 4_655 112.73(5)
N P O 2_565 4_655 112.73(5)
O P N 3_665 4_655 107.9
N P N 3_665 4_655 107.86(2)
O P N 2_565 4_655 112.7
N P N 2_565 4_655 112.73(5)
O P N 4_655 4_655 0.0
O P N 3_665 . 112.7
N P N 3_665 . 112.73(5)
O P N 2_565 . 107.9
N P N 2_565 . 107.86(2)
O P N 4_655 . 107.9
N P N 4_655 . 107.86(2)
P N P . 5 132.83(16)
loop_
_geom_bond_atom_site_label_1
_geom_bond_atom_site_label_2
_geom_bond_site_symmetry_2
_geom_bond_distance
P O 3_665 1.5796(10)
P N 3_665 1.5796(10)
P O 2_565 1.5796(10)
P N 2_565 1.5796(10)
P O 4_655 1.5796(10)
P N 4_655 1.5796(10)
P N . 1.5796(10)
N P 5 1.5796(10)

_cod_database_fobs_code 2241204
