
#(C) 2017 by FIZ Karlsruhe - Leibniz Institute for Information Infrastructure.  All rights reserved.
data_165251-ICSD
_database_code_ICSD 165251
_audit_creation_date 2010-02-01
_audit_update_record 2016-08-01
_chemical_name_systematic 'Cobalt silicide'
_chemical_formula_structural 'Co2 Si'
_chemical_formula_sum 'Co2 Si1'
_chemical_name_structure_type Co2Si
_exptl_crystal_density_diffrn 7.47
_publ_section_title 'The Ti Ni Si family of compounds: structure and bonding'
loop_
_citation_id
_citation_journal_full
_citation_year
_citation_journal_volume
_citation_page_first
_citation_page_last
_citation_journal_id_ASTM
primary 'Inorganic Chemistry' 1998 37 5754 5763 INOCAJ
loop_
_publ_author_name
'Landrum, G.A.'
'Hoffmann, R.'
'Evers, J.'
'Boysen, H.'
_cell_length_a 4.906(2)
_cell_length_b 3.729(1)
_cell_length_c 7.090(2)
_cell_angle_alpha 90.
_cell_angle_beta 90.
_cell_angle_gamma 90.
_cell_volume 129.71
_cell_formula_units_Z 4
_symmetry_space_group_name_H-M 'P n m a'
_symmetry_Int_Tables_number 62
_refine_ls_R_factor_all 0.0692
loop_
_symmetry_equiv_pos_site_id
_symmetry_equiv_pos_as_xyz
1 'x+1/2, y, -z+1/2'
2 'x, -y+1/2, z'
3 '-x+1/2, y+1/2, z+1/2'
4 '-x, -y, -z'
5 '-x+1/2, -y, z+1/2'
6 '-x, y+1/2, -z'
7 'x+1/2, -y+1/2, -z+1/2'
8 'x, y, z'
loop_
_atom_type_symbol
_atom_type_oxidation_number
Co0+ 0
Si0+ 0
loop_
_atom_site_label
_atom_site_type_symbol
_atom_site_symmetry_multiplicity
_atom_site_Wyckoff_symbol
_atom_site_fract_x
_atom_site_fract_y
_atom_site_fract_z
_atom_site_B_iso_or_equiv
_atom_site_occupancy
_atom_site_attached_hydrogens
Co1 Co0+ 4 c 0.0392(9) 0.25 0.7198(4) . 1. 0
Co2 Co0+ 4 c 0.1711(7) 0.25 0.0640(4) . 1. 0
Si1 Si0+ 4 c 0.2077(16) 0.25 0.3909(8) . 1. 0
#End of TTdata_165251-ICSD