
#(C) 2018 by FIZ Karlsruhe - Leibniz Institute for Information Infrastructure.  All rights reserved.
data_60966-ICSD
_database_code_ICSD 60966
_audit_creation_date 1988-02-22
_audit_update_record 2003-10-01
_chemical_name_systematic 'Rubidium nitrate(V) - HT'
_chemical_formula_structural 'Rb (N O3)'
_chemical_formula_sum 'N1 O3 Rb1'
_exptl_crystal_density_diffrn 2.87
_cell_measurement_temperature 461.
_publ_section_title
'Single-crystal (neutron) diffraction structure of III-rubidium nitrate'
loop_
_citation_id
_citation_journal_full
_citation_year
_citation_journal_volume
_citation_page_first
_citation_page_last
_citation_journal_id_ASTM
primary 'Acta Crystallographica, Section C: Crystal Structure Communications'
1987 43 385 388 ACSCEE
loop_
_publ_author_name
'Shamsuzzoha, M.'
'Lucas, B.W.'
_cell_length_a 4.40(1)
_cell_length_b 4.40(1)
_cell_length_c 4.40(1)
_cell_angle_alpha 90.
_cell_angle_beta 90.
_cell_angle_gamma 90.
_cell_volume 85.18
_cell_formula_units_Z 1
_symmetry_space_group_name_H-M 'P 4 3 2'
_symmetry_Int_Tables_number 207
_refine_ls_R_factor_all 0.062
loop_
_symmetry_equiv_pos_site_id
_symmetry_equiv_pos_as_xyz
1 'y, x, -z'
2 '-y, x, z'
3 'y, -x, z'
4 '-y, -x, -z'
5 'z, -x, -y'
6 '-z, -x, y'
7 '-z, x, -y'
8 'z, x, y'
9 '-z, y, x'
10 'z, -y, x'
11 'z, y, -x'
12 '-z, -y, -x'
13 '-y, z, -x'
14 'y, -z, -x'
15 '-y, -z, x'
16 'y, z, x'
17 'x, -z, y'
18 'x, z, -y'
19 '-x, z, y'
20 '-x, -z, -y'
21 '-x, -y, z'
22 '-x, y, -z'
23 'x, -y, -z'
24 'x, y, z'
loop_
_atom_type_symbol
_atom_type_oxidation_number
Rb1+ 1
N5+ 5
O2- -2
loop_
_atom_site_label
_atom_site_type_symbol
_atom_site_symmetry_multiplicity
_atom_site_Wyckoff_symbol
_atom_site_fract_x
_atom_site_fract_y
_atom_site_fract_z
_atom_site_B_iso_or_equiv
_atom_site_occupancy
_atom_site_attached_hydrogens
Rb1 Rb1+ 1 a 0 0 0 5.69(57) 1. 0
N1 N5+ 8 g 0.444(3) 0.444(3) 0.444(3) 8.23(57) 0.125 0
O1 O2- 24 k 0.533(14) 0.575(18) 0.231(4) 12.15(69) 0.125 0
#End of TTdata_60966-ICSD