#------------------------------------------------------------------------------
#$Date: 2016-03-23 23:08:28 +0200 (Wed, 23 Mar 2016) $
#$Revision: 179502 $
#$URL: svn://www.crystallography.net/cod/cif/4/33/99/4339993.cif $
#------------------------------------------------------------------------------
#
# This file is available in the Crystallography Open Database (COD),
# http://www.crystallography.net/
#
# All data on this site have been placed in the public domain by the
# contributors.
#
data_4339993
loop_
_publ_author_name
'Richtera, Lukas'
'Jancik, Vojtech'
'Mart\'inez-Otero, Diego'
'Pokluda, Ales'
'Zak, Zdirad'
'Taraba, Jan'
'Touzin, Jiri'
_publ_section_title
;
 Taming the Oxidative Power of SeO3 in 1,4-Dioxane, Isolation of Two New
 Isomers of Mixed-Valence Selenium Oxides, and Two Unprecedented Cyclic
 Esters of Selenic Acid.
;
_journal_issue                   13
_journal_name_full               'Inorganic chemistry'
_journal_page_first              6569
_journal_page_last               6577
_journal_paper_doi               10.1021/ic500137z
_journal_volume                  53
_journal_year                    2014
_chemical_formula_moiety         'O12 Se4'
_chemical_formula_sum            'O12 Se4'
_chemical_formula_weight         507.84
_chemical_name_systematic
;
 ?
;
_space_group_crystal_system      tetragonal
_space_group_IT_number           114
_space_group_name_Hall           'P -4 2n'
_space_group_name_H-M_alt        'P -4 21 c'
_symmetry_space_group_name_Hall  'P -4 2n'
_symmetry_space_group_name_H-M   'P -4 21 c'
_atom_sites_solution_primary     direct
_atom_sites_solution_secondary   difmap
_audit_creation_method           SHELXL-2013
_cell_angle_alpha                90
_cell_angle_beta                 90
_cell_angle_gamma                90
_cell_formula_units_Z            2
_cell_length_a                   9.527(3)
_cell_length_b                   9.527(3)
_cell_length_c                   5.1710(10)
_cell_measurement_reflns_used    32
_cell_measurement_temperature    153(2)
_cell_measurement_theta_max      26.32
_cell_measurement_theta_min      3.76
_cell_volume                     469.3(2)
_computing_cell_refinement       'KM-4 software'
_computing_data_collection       'KM-4 software'
_computing_data_reduction        'KM-4 software'
_computing_molecular_graphics    'Bruker SHELXTL V5.1'
_computing_publication_material  'Bruker SHELXTL V5.1'
_computing_structure_refinement  'SHELXL-2013 (Sheldrick, 2013)'
_computing_structure_solution    'SHELXS-97 (Sheldrick, 1990)'
_diffrn_ambient_temperature      153(2)
_diffrn_measured_fraction_theta_full 0.989
_diffrn_measured_fraction_theta_max 0.998
_diffrn_measurement_device_type  'KUMA KM-4 point detector'
_diffrn_measurement_method       omega-scan
_diffrn_radiation_monochromator  graphite
_diffrn_radiation_source         'fine-focus sealed tube'
_diffrn_radiation_type           MoK\a
_diffrn_radiation_wavelength     0.71073
_diffrn_reflns_av_R_equivalents  0.0790
_diffrn_reflns_av_unetI/netI     0.0806
_diffrn_reflns_Laue_measured_fraction_full 0.989
_diffrn_reflns_Laue_measured_fraction_max 0.998
_diffrn_reflns_limit_h_max       13
_diffrn_reflns_limit_h_min       -9
_diffrn_reflns_limit_k_max       9
_diffrn_reflns_limit_k_min       -13
_diffrn_reflns_limit_l_max       1
_diffrn_reflns_limit_l_min       -7
_diffrn_reflns_number            1459
_diffrn_reflns_point_group_measured_fraction_full 0.991
_diffrn_reflns_point_group_measured_fraction_max 0.994
_diffrn_reflns_theta_full        25.242
_diffrn_reflns_theta_max         30.029
_diffrn_reflns_theta_min         3.024
_diffrn_standards_decay_%        none
_diffrn_standards_interval_count 'after every 150 reflections'
_diffrn_standards_number         3
_exptl_absorpt_coefficient_mu    15.694
_exptl_absorpt_correction_T_max  0.0885
_exptl_absorpt_correction_T_min  0.0618
_exptl_absorpt_correction_type   psi-scan
_exptl_absorpt_process_details
;
Bruker SHELXTL V5.1, XEMP program
;
_exptl_crystal_colour            colourless
_exptl_crystal_density_diffrn    3.594
_exptl_crystal_description       prism
_exptl_crystal_F_000             464
_exptl_crystal_size_max          0.400
_exptl_crystal_size_mid          0.400
_exptl_crystal_size_min          0.300
_refine_diff_density_max         0.640
_refine_diff_density_min         -0.672
_refine_diff_density_rms         0.176
_refine_ls_abs_structure_details
;
 Flack x determined using 188 quotients [(I+)-(I-)]/[(I+)+(I-)]
 (Parsons and Flack (2004), Acta Cryst. A60, s61).
;
_refine_ls_abs_structure_Flack   0.03(4)
_refine_ls_extinction_coef       0.012(2)
_refine_ls_extinction_expression Fc^*^=kFc[1+0.001xFc^2^\l^3^/sin(2\q)]^-1/4^
_refine_ls_extinction_method     SHELXL
_refine_ls_goodness_of_fit_ref   1.049
_refine_ls_hydrogen_treatment    undef
_refine_ls_matrix_type           full
_refine_ls_number_parameters     38
_refine_ls_number_reflns         684
_refine_ls_number_restraints     0
_refine_ls_restrained_S_all      1.049
_refine_ls_R_factor_all          0.0518
_refine_ls_R_factor_gt           0.0298
_refine_ls_shift/su_max          0.000
_refine_ls_shift/su_mean         0.000
_refine_ls_structure_factor_coef Fsqd
_refine_ls_weighting_details
;
 w=1/[\s^2^(Fo^2^)+(0.0136P)^2^+0.9120P]
 where P=(Fo^2^+2Fc^2^)/3
;
_refine_ls_weighting_scheme      calc
_refine_ls_wR_factor_gt          0.0691
_refine_ls_wR_factor_ref         0.0752
_reflns_Friedel_coverage         0.648
_reflns_Friedel_fraction_full    0.994
_reflns_Friedel_fraction_max     0.989
_reflns_number_gt                542
_reflns_number_total             684
_reflns_threshold_expression     'I > 2\s(I)'
_cod_data_source_file            ic500137z_si_002.cif
_cod_data_source_block           (SeO3)4
_cod_depositor_comments
'Adding full bibliography for 4339987--4339996.cif.'
_cod_original_cell_volume        469.3(3)
_cod_database_code               4339993
#BEGIN Tags that were not found in dictionaries:
_shelx_space_group_comment
;
The symmetry employed for this shelxl refinement is uniquely defined
by the following loop, which should always be used as a source of
symmetry information in preference to the above space-group names.
They are only intended as comments.
;
_shelx_estimated_absorpt_t_min   0.062
_shelx_estimated_absorpt_t_max   0.088
_shelxl_version_number           2013-2
_shelx_res_file
;
TITL seo4b in P-42(1)c
CELL 0.71073   9.527   9.527   5.171  90.00  90.00  90.00
ZERR    2.00   0.003   0.003   0.001   0.00   0.00   0.00
LATT -1
SYMM -X, -Y, Z
SYMM Y, -X, -Z
SYMM -Y, X, -Z
SYMM .5-X, .5+Y, .5-Z
SYMM .5+X, .5-Y, .5-Z
SYMM .5-Y, .5-X, .5+Z
SYMM .5+Y, .5+X, .5+Z
SFAC O SE
UNIT 24 8

L.S. 10
TEMP -120
SIZE 0.4 0.4 0.3

BOND
FMAP 2
PLAN 20
LIST 4
OMIT -1 3 2
OMIT 3 4 0
omit     -9   9   2
omit  0   1   3
shel 999 0.71
ACTA

WGHT    0.013600    0.912000
EXTI    0.011550
FVAR       0.49039
SE1   2    0.513018    0.274604    0.062949    11.00000    0.02199    0.01959 =
         0.02249    0.00041   -0.00028    0.00025
O1    1    0.602866    0.382686   -0.161217    11.00000    0.02327    0.02247 =
         0.02023   -0.00007   -0.00196   -0.00551
O2    1    0.602989    0.258528    0.316361    11.00000    0.02967    0.02907 =
         0.02264    0.00486   -0.00235    0.00272
O3    1    0.446129    0.156567   -0.108313    11.00000    0.02992    0.02676 =
         0.03660   -0.00853   -0.00074    0.00036
HKLF 4

REM  seo4b in P-42(1)c
REM R1 =  0.0298 for     542 Fo > 4sig(Fo)  and  0.0518 for all     684 data
REM     38 parameters refined using      0 restraints

END

WGHT      0.0136      0.9120

REM Highest difference peak  0.640,  deepest hole -0.672,  1-sigma level  0.176
Q1    1   0.4115  0.2756  0.0736  11.00000  0.05    0.64
Q2    1   0.5233  0.3700  0.0547  11.00000  0.05    0.61
Q3    1   0.5362  0.3406  0.2491  11.00000  0.05    0.59
Q4    1   0.5843  0.2203  0.2646  11.00000  0.05    0.57
Q5    1   0.4057  0.1985 -0.1550  11.00000  0.05    0.57
Q6    1   0.4984  0.1677  0.3173  11.00000  0.05    0.49
Q7    1   0.5107  0.1456  0.0053  11.00000  0.05    0.49
Q8    1   0.5738  0.5244 -0.2852  11.00000  0.05    0.47
Q9    1   0.7020  0.3334  0.4965  11.00000  0.05    0.47
Q10   1   0.2643  0.1235 -0.0032  11.00000  0.05    0.47
Q11   1   0.6774  0.3100  0.0657  11.00000  0.05    0.47
Q12   1   0.4754  0.1008 -0.0279  11.00000  0.05    0.46
Q13   1   0.5195  0.4350 -0.4381  11.00000  0.05    0.45
Q14   1   0.4576  0.4166 -0.1324  11.00000  0.05    0.44
Q15   1   0.5026  0.1425  0.1367  11.00000  0.05    0.42
Q16   1   0.5796  0.1916 -0.1374  11.00000  0.05    0.42
Q17   1   0.5129  0.2613  0.1392  11.00000  0.05    0.42
Q18   1   0.5582  0.0853  0.1088  11.00000  0.05    0.41
Q19   1   0.5114  0.2306 -0.0201  11.00000  0.05    0.40
Q20   1   0.4926  0.1245 -0.4280  11.00000  0.05    0.40
;
_shelx_res_checksum              82877
_shelx_hkl_file
;
   3  -5  -1  648.01   25.13
   4  -4  -1   10.24   11.33
   5  -3  -1  615.28   23.58
   5  -3   0  216.85   14.53
   4  -4   0 3080.36   44.74
   3  -5   0  216.28   14.58
   1  -6   0   44.06    3.41
   2  -5   0    2.95   11.27
   3  -4   0   40.24    2.69
   4  -3   0   38.37    2.64
   5  -2   0    0.98   11.12
   6  -1   0   46.75    3.52
   5  -2  -1  164.67   11.27
   4  -3  -1  379.71   18.15
   3  -4  -1  405.62   19.65
   2  -5  -1  177.03   11.43
   3  -4  -2 1449.00   35.58
   4  -3  -2 1381.82   33.36
   4  -2  -2   90.04    4.81
   3  -3  -2  691.56   24.51
   2  -4  -2   99.66    7.14
   1  -5  -1  214.83   13.76
   2  -4  -1 1192.13   29.01
   3  -3  -1  -25.44   10.55
   4  -2  -1 1103.90   26.63
   5  -1  -1  189.44   12.67
   6   0   0   20.89   14.02
   5  -1   0  548.87   24.10
   4  -2   0   13.60    9.93
   3  -3   0  599.19   18.67
   2  -4   0   16.08    9.67
   1  -5   0  611.76   24.51
   0  -6   0    7.76   15.36
  -1  -6   0   51.46    7.65
   0  -5   0   41.74    3.78
   1  -4   0  409.03   18.20
   2  -3   0 1103.02   22.45
   3  -2   0 1030.77   21.82
   4  -1   0  406.44   17.74
   5   0   0   25.08   15.20
   6   1   0   61.18    3.98
   5   0  -1 2656.70   48.30
   4  -1  -1  757.45   23.17
   3  -2  -1 3787.70   42.25
   2  -3  -1 4085.48   45.30
   1  -4  -1  858.40   26.53
   0  -5  -1 2994.36   53.11
   0  -5  -2  147.19   10.14
   1  -4  -2  386.33   23.17
   2  -3  -2   91.13    5.07
   3  -2  -2   72.30    5.33
   4  -1  -2  355.50   19.45
   5   0  -2  110.11    9.05
   2  -2  -3  -15.93   14.53
   4   0  -2 2521.20   46.55
   3  -1  -2   68.99    4.29
   2  -2  -2 3650.49   46.91
   1  -3  -2  105.50    6.31
   0  -4  -2 3058.07   56.89
  -1  -5  -1  252.28   18.41
   0  -4  -1  387.00   21.62
   1  -3  -1  432.72   17.84
   2  -2  -1    0.52    7.40
   3  -1  -1  386.58   15.20
   4   0  -1  338.64   19.03
   5   1  -1  227.35   15.05
   5   1   0  535.53   28.39
   4   0   0 3747.25   49.75
   3  -1   0  349.45   14.27
   2  -2   0 9999.00   56.11
   1  -3   0  356.48   14.27
   0  -4   0 3832.59   50.68
  -1  -5   0  572.71   29.79
  -2  -5   0  -22.86   17.89
  -1  -4   0  458.06   23.48
   0  -3   0   -1.55    9.36
   1  -2   0   90.19    6.52
   2  -1   0   92.52    5.38
   3   0   0    4.50    9.77
   4   1   0  432.35   21.98
   5   2   0    5.12   17.07
   5   2  -1  191.61   11.27
   4   1  -1  636.69   26.79
   3   0  -1 1100.59   25.55
   2  -1  -1 1451.54   22.76
   1  -2  -1 1797.78   27.51
   0  -3  -1 1332.33   30.72
  -1  -4  -1  715.19   30.05
  -2  -5  -1  187.68   12.72
  -1  -4  -2  467.68   28.60
   0  -3  -2 2671.02   51.35
   1  -2  -2 1079.54   28.50
   2  -1  -2  845.26   22.29
   3   0  -2 1947.30   37.86
   4   1  -2  403.03   24.36
   2  -1  -3  269.24   18.20
   1  -2  -3  288.58   18.93
   0  -2  -3 4019.44   71.32
   1  -1  -3    7.40   16.65
   2   0  -3 2798.14   45.77
   4   2  -2   81.20    4.76
   3   1  -2   83.26    3.98
   2   0  -2   28.13    2.22
   1  -1  -2   32.37    3.36
   0  -2  -2   43.44    3.67
  -1  -3  -2   86.52    6.57
  -2  -4  -2  117.86    8.38
  -3  -5  -1  615.33   34.91
  -2  -4  -1 1216.12   39.62
  -1  -3  -1  370.40   21.26
   0  -2  -1 2367.60   35.79
   1  -1  -1   -2.53    6.21
   2   0  -1 1754.96   27.20
   3   1  -1  336.06   19.29
   4   2  -1 1066.09   37.03
   5   3  -1  611.45   33.98
   5   3   0  198.08   16.24
   4   2   0   17.12   15.62
   3   1   0  336.32   18.00
   2   0   0    6.52    1.60
   1  -1   0  501.34    9.57
   0  -2   0    0.00    7.86
  -1  -3   0  378.88   19.39
  -2  -4   0  -18.88   15.88
  -3  -5   0  242.55   16.76
  -3  -4   0   38.99   20.64
  -2  -3   0 1076.18   32.84
  -1  -2   0  100.07    6.41
   0  -1   0   -3.98    4.19
   1   0   0    7.45    4.03
   2   1   0   83.52    5.48
   3   2   0  936.49   30.93
   4   3   0   39.67   20.64
   4   3  -1  381.26   25.44
   3   2  -1 3496.58   58.75
   2   1  -1 1658.61   34.08
   1   0  -1 3552.80   30.72
   0  -1  -1 5936.17   51.04
  -1  -2  -1 2045.56   38.74
  -2  -3  -1 3874.32   61.65
  -3  -4  -1  466.80   29.69
  -3  -4  -2 1497.36   47.84
  -2  -3  -2   93.71    5.84
  -1  -2  -2  990.74   35.27
   0  -1  -2   93.14    5.59
   1   0  -2   64.75    5.38
   2   1  -2  729.36   28.70
   3   2  -2   63.35    6.88
   4   3  -2 1399.36   47.94
   2   1  -3  243.95   13.96
   1   0  -3  147.08    8.79
   0  -1  -3  152.93    7.86
  -1  -2  -3  287.75   19.60
  -2  -2  -3   -1.19   21.46
  -1  -1  -3   -2.28   18.93
   0   0  -3   24.00    4.65
   1   1  -3    0.67   18.82
   2   2  -3   11.43   20.64
   3   3  -2  566.04   34.03
   2   2  -2 2840.66   59.06
   1   1  -2   33.31    3.72
   0   0  -2 2511.01   49.80
  -1  -1  -2   62.42    4.24
  -2  -2  -2 3421.38   63.77
  -3  -3  -2  787.03   36.15
  -4  -4  -1   21.88   19.39
  -3  -3  -1  -32.94   18.82
  -2  -2  -1   -7.76   13.65
  -1  -1  -1    8.53   11.27
   0   0  -1    7.91    9.72
   1   1  -1    2.33    2.43
   2   2  -1  -19.14   12.93
   4   4  -1   19.50   19.14
   4   4   0 2656.08   59.73
   3   3   0  560.61   27.57
   2   2   0 7821.77   74.42
   1   1   0  430.70   14.79
  -1  -1   0  451.59   14.95
  -2  -2   0 8098.87   75.40
  -3  -3   0  550.73   28.44
  -4  -4   0 2748.08   60.51
   5  -6   0   22.91    3.05
   6  -5   0   19.39   14.02
   3  -7  -1  194.77   11.17
   4  -6  -1  302.65   20.79
   5  -5  -1   12.05   12.72
   6  -4  -1  287.39   18.82
   7  -3  -1  158.72    9.15
   7  -3   0 1694.87   40.75
   6  -4   0  133.58   10.08
   5  -5   0 2162.13   42.61
   4  -6   0  146.93   10.71
   3  -7   0 1760.55   41.94
   2  -7   0  215.92   15.46
   3  -6   0  260.39   18.15
   4  -5   0  694.87   25.19
   5  -4   0  664.05   24.46
   6  -3   0  291.42   20.07
   7  -2   0  207.64   16.65
   7  -2  -1 2207.12   47.01
   6  -3  -1  832.23   29.06
   5  -4  -1 2636.17   45.67
   4  -5  -1 2774.51   46.91
   3  -6  -1  903.70   30.77
   2  -7  -1 2438.61   50.58
   3  -6  -2  292.46   17.74
   4  -5  -2  124.33    8.95
   5  -4  -2  121.59    8.17
   6  -3  -2  264.69   15.93
   6  -2  -2  966.69   32.94
   5  -3  -2   86.88    6.72
   4  -4  -2 1477.66   36.20
   3  -5  -2   82.95    5.59
   2  -6  -2 1187.58   37.65
   1  -7  -1  402.62   26.17
   2  -6  -1   53.94    4.71
   6  -2  -1   52.18    4.14
   7  -1  -1  420.20   24.62
   7  -1   0  732.98   29.12
   6  -2   0 1984.64   41.11
   2  -6   0 2010.49   41.58
   1  -7   0  783.25   30.51
   0  -7   0    3.47   15.72
   7   0   0   13.29   15.26
   7   0  -1   20.53    3.78
   6  -1  -1  291.53   18.05
   1  -6  -1  307.04   22.13
   0  -7  -1   31.13    4.19
   1  -6  -2  571.78   29.74
   2  -5  -2 2227.65   46.23
   5  -2  -2 1860.41   39.77
   6  -1  -2  447.20   24.93
   5  -2  -3    1.81   15.00
   4  -3  -3   71.52    4.19
   3  -4  -3   71.37    6.00
   2  -5  -3    6.67   16.81
   1  -5  -3  339.83   21.82
   2  -4  -3 3094.84   57.87
   3  -3  -3    7.03   13.50
   4  -2  -3 2601.57   48.72
   5  -1  -3  247.10   15.31
   6   0  -2  197.40   15.00
   5  -1  -2  791.32   28.60
   1  -5  -2  917.46   33.10
   0  -6  -2  238.47   16.08
  -1  -7  -1  441.46   28.39
   0  -6  -1  931.68   34.29
   6   0  -1  847.69   31.91
   7   1  -1  400.44   26.58
   7   1   0  708.37   32.63
  -1  -7   0  788.22   34.34
  -2  -7   0  236.19   19.14
   7   2   0  205.01   16.14
   7   2  -1 2339.47   58.08
   6   1  -1  317.59   23.12
  -1  -6  -1  355.35   24.00
  -2  -7  -1 2721.34   61.80
  -1  -6  -2  575.87   32.22
   6   1  -2  497.10   28.96
   5   0  -3  546.13   28.75
   4  -1  -3  619.52   26.69
   3  -2  -3  254.45   19.86
   2  -3  -3  353.59   22.65
   1  -4  -3  846.76   34.50
   0  -5  -3  795.20   36.87
  -1  -5  -3  341.02   20.79
   0  -4  -3   28.96   19.50
   1  -3  -3  932.82   35.27
   3  -1  -3  691.56   26.38
   4   0  -3   23.32   14.89
   5   1  -3  319.35   21.20
   6   2  -2 1154.01   42.87
   5   1  -2  815.42   33.00
  -1  -5  -2  960.90   37.55
  -2  -6  -2 1291.11   45.92
  -3  -7  -1  182.97    8.48
  -2  -6  -1   49.75    5.22
   6   2  -1   47.94    4.29
   7   3  -1  175.94   11.48
   7   3   0 1693.16   50.89
   6   2   0 1979.78   50.94
  -2  -6   0 2136.01   52.23
  -3  -7   0 1705.31   52.49
  -3  -6   0  275.96   17.79
   6   3   0  268.51   19.86
   6   3  -1  994.36   40.34
  -3  -6  -1 1123.96   43.34
  -3  -6  -2  271.57   21.05
  -2  -5  -2 2310.92   57.35
   5   2  -2 2001.70   53.16
   6   3  -2  298.41   21.41
   5   2  -3    1.24   20.22
   4   1  -3  671.34   33.00
   3   0  -3   42.51    3.93
   0  -3  -3   17.22   21.31
  -1  -4  -3  936.39   41.01
  -2  -5  -3    5.90   21.93
   1  -2  -4 1577.83   50.11
   2  -1  -4 1423.92   42.56
   2   0  -4  -13.91   15.36
   1  -1  -4  218.30   13.86
   0  -2  -4    3.31   22.08
  -2  -4  -3 3240.74   71.58
  -1  -3  -3  964.68   40.96
   3   1  -3  768.31   32.94
   4   2  -3 2888.34   66.09
   5   3  -2  103.85    7.81
  -3  -5  -2  105.97    9.21
  -4  -6  -1  243.28   16.81
   6   4  -1  241.36   17.53
   6   4   0  132.45    9.52
  -4  -6   0  133.17   10.34
  -5  -6   0   13.08   19.81
  -4  -5   0  674.34   35.06
   5   4   0  601.73   33.98
   6   5   0  -16.08   20.84
   5   4  -1 2647.13   62.99
  -4  -5  -1 2686.44   62.47
  -4  -5  -2  122.10   10.91
   5   4  -2  110.05    6.67
   4   3  -3   82.85    5.22
   3   2  -3  258.64   15.36
  -2  -3  -3  301.56   23.69
  -3  -4  -3   54.98   23.74
  -1  -2  -4 1509.98   54.77
   0  -1  -4  773.63   41.43
   1   0  -4  903.24   41.63
   2   1  -4 1170.10   39.41
   1   1  -4  195.80   13.08
   0   0  -4  191.82   13.39
  -1  -1  -4  165.75    9.72
  -3  -3  -3    6.31    4.55
   3   3  -3   33.05   21.20
   4   4  -2 1306.68   47.48
  -4  -4  -2 1538.42   49.44
  -5  -5  -1  -12.10   19.91
   5   5  -1  -26.79   20.12
   5   5   0 2136.84   57.82
  -5  -5   0 2131.31   58.28
   5  -7  -1  411.61   25.03
   6  -6  -1    1.45   13.24
   7  -5  -1  406.08   24.36
   8  -4   0  427.96   24.77
   7  -5   0   28.08   14.27
   6  -6   0  561.49   25.55
   5  -7   0   18.51   14.79
   4  -8   0  419.58   25.91
   3  -8   0   73.54    5.79
   4  -7   0   12.26   12.46
   7  -4   0  -11.17   14.33
   8  -3   0   79.28    4.65
   8  -3  -1   -6.41   15.31
   7  -4  -1   11.07   14.22
   6  -5  -1   -3.67   14.12
   5  -6  -1   10.86    3.15
   4  -7  -1    8.59    3.36
   3  -8  -1   28.55    3.67
   4  -7  -2  641.19   30.82
   5  -6  -2  499.02   25.55
   6  -5  -2  449.99   25.55
   7  -4  -2  577.57   28.03
   5  -5  -3  -16.50   15.72
   7  -3  -2  479.05   26.58
   6  -4  -2   10.55   14.22
   5  -5  -2  593.76   26.74
   4  -6  -2   16.65   15.72
   3  -7  -2  570.18   29.69
   2  -8  -1  208.94   13.96
   8  -2  -1  176.35   12.98
   8  -2   0   99.92    7.91
   2  -8   0   98.52    7.24
   1  -8   0  171.86   11.38
   8  -1   0  174.49   12.57
   8  -1  -1  214.94   14.43
   1  -8  -1  245.14   16.50
   1  -8  -2  180.13   14.07
   2  -7  -2   -2.74   16.39
   7  -2  -2    7.91   15.72
   8  -1  -2  197.97   11.07
   6  -3  -3  107.31    5.43
   5  -4  -3   25.50    3.47
   4  -5  -3    1.50   16.60
   3  -6  -3  125.36    8.53
   1  -7  -3  462.19   30.20
   2  -6  -3   44.17    4.24
   3  -5  -3  899.67   34.91
   4  -4  -3   10.24   14.69
   5  -3  -3  812.94   31.44
   6  -2  -3   11.58   16.03
   7  -1  -3  435.40   27.10
   8   0  -2  228.69   14.84
   7  -1  -2  584.45   29.79
   1  -7  -2  677.85   33.67
   0  -8  -2  251.03   15.05
   0  -8  -1   21.72   16.70
   8   0  -1   43.18    4.03
   8   0   0 1475.79   43.86
   0  -8   0 1545.77   45.36
  -1  -8   0  176.98   12.77
   8   1   0  150.55    8.69
   8   1  -1  199.94   17.17
  -1  -8  -1  250.78   16.24
  -1  -8  -2  200.14   11.17
   0  -7  -2 1485.31   45.98
   7   0  -2 1401.94   43.03
   8   1  -2  187.47   11.38
   7   0  -3   -3.47   16.03
   6  -1  -3  296.39   18.20
   1  -6  -3  396.05   25.96
   0  -7  -3   20.79   18.88
   3  -4  -4  832.38   36.41
   4  -3  -4  798.61   33.82
   5  -1  -4  138.24    8.43
   4  -2  -4   -1.60   16.03
   3  -3  -4  159.13   10.24
   2  -4  -4    9.98   17.74
   1  -5  -4  159.18   11.38
  -1  -7  -3  530.25   34.44
   0  -6  -3 1985.46   54.98
   6   0  -3 1607.41   45.77
   7   1  -3  447.82   30.10
   7   1  -2  776.74   37.13
  -1  -7  -2  775.70   37.49
  -2  -8  -1  225.59   19.45
   8   2  -1  238.16   17.43
   8   2   0   99.40    7.86
  -2  -8   0  102.86    8.79
  -3  -8   0   86.21    5.28
   8   3   0   79.90    5.64
   8   3  -1    5.90   19.55
  -3  -8  -1   16.19   20.43
  -2  -7  -2   35.63   20.53
   7   2  -2  -26.79   20.17
   6   1  -3  346.61   24.36
  -1  -6  -3  345.83   23.69
   0  -5  -4  -42.20   22.08
   1  -4  -4  549.85   33.25
   2  -3  -4  126.86    8.95
   3  -2  -4  113.67    6.83
   4  -1  -4  379.91   24.88
   5   0  -4    7.60   16.34
   5   1  -4  150.86    5.95
   4   0  -4   11.38   15.41
   3  -1  -4  125.36    9.62
   2  -2  -4   88.23    5.79
   1  -3  -4  110.83    9.21
   0  -4  -4   39.20   21.98
  -1  -5  -4  175.27   11.74
  -2  -6  -3   32.48   21.41
   6   2  -3   41.74    4.71
   7   3  -2  656.44   37.49
  -3  -7  -2  699.94   37.86
   8   4   0  400.03   28.86
  -4  -8   0  512.31   31.70
  -4  -7   0   18.62   18.98
   7   4   0   -1.71   18.57
   7   4  -1  -34.08   20.74
  -4  -7  -1    2.69   20.69
  -4  -7  -2  685.61   37.91
   7   4  -2  639.53   36.72
   6   3  -3  116.83    8.64
  -3  -6  -3  142.53   10.14
  -1  -4  -4  517.79   34.86
   0  -3  -4 1997.67   58.70
   3   0  -4 1386.58   40.44
   4   1  -4  436.34   28.44
   4   2  -4   29.48   18.20
   3   1  -4   93.87    8.74
  -1  -3  -4  132.40    7.76
  -2  -4  -4   10.08    4.91
  -3  -5  -3 1059.37   45.77
   5   3  -3  865.28   42.82
   6   4  -2   10.19    4.71
  -4  -6  -2   39.51   18.98
  -5  -7  -1  488.31   31.50
   7   5  -1  456.51   31.24
   7   5   0   30.25    4.60
  -5  -7   0   28.91   18.82
   6   5  -1  -14.79   19.60
  -5  -6  -1   28.50   18.77
  -5  -6  -2  572.51   34.81
   6   5  -2  504.24   33.25
   5   4  -3   22.86    4.81
  -4  -5  -3   -1.55   20.12
  -3  -4  -4  894.81   43.70
  -2  -3  -4  138.55    7.34
   3   2  -4  109.95    6.15
   4   3  -4  684.21   41.32
   3   3  -4  160.12   11.84
   2   2  -4   68.68    5.17
  -2  -2  -4   40.44   24.51
  -3  -3  -4  186.96   10.14
  -5  -5  -3   11.02   21.00
  -4  -4  -3   13.86   21.36
   4   4  -3    4.71   20.79
   5   5  -3    4.24   18.88
   5   5  -2  613.31   36.93
  -5  -5  -2  665.80   36.67
  -6  -6  -1   19.29   18.26
   6   6  -1  -23.89   20.43
   6   6   0  662.70   37.13
  -6  -6   0  589.73   36.20
   5  -8  -1  261.17   17.43
   6  -7  -1  863.72   33.67
   7  -6  -1  787.96   32.06
   8  -5  -1  294.42   16.45
   9  -4   0  103.90    6.77
   8  -5   0  267.12   17.22
   7  -6   0  202.37   17.01
   6  -7   0  201.33   13.29
   5  -8   0  245.29   18.31
   4  -9   0  105.45    6.05
   3  -9   0   93.71    8.95
   9  -3   0   99.14    6.52
   9  -3  -1  250.41   15.05
   8  -4  -1   39.62    3.57
   4  -8  -1   53.16    3.78
   3  -9  -1  227.92   16.08
   4  -8  -2  406.91   26.58
   5  -7  -2   27.51    3.72
   6  -6  -2  575.40   29.32
   7  -5  -2   21.93   15.10
   8  -4  -2  405.93   27.36
   4  -7  -3   56.06    4.76
   5  -6  -3  193.42    9.93
   6  -5  -3  191.51   12.98
   7  -4  -3   53.53    4.34
   8  -3  -2  139.58   10.03
   3  -8  -2  127.79    7.29
   2  -9  -1  123.34   11.17
   9  -2  -1  106.90    8.53
   9  -2   0   -8.27   14.48
   2  -9   0   17.84   16.50
   1  -9   0 1395.37   44.01
   9  -1   0 1233.66   41.11
   9  -1  -1  268.46   19.19
   1  -9  -1  303.73   21.00
   1  -9  -2  397.03   28.34
   2  -8  -2   56.58    4.60
   8  -2  -2   50.17    3.93
   9  -1  -2  325.30   22.24
   7  -3  -3  101.16    5.28
   6  -4  -3  815.32   32.84
   4  -6  -3  907.74   35.27
   3  -7  -3  128.26    6.46
   5  -4  -4   20.69   16.39
   4  -5  -4  -16.81   18.00
   1  -8  -3  140.15   10.81
   2  -7  -3  225.80   14.89
   7  -2  -3  227.35   13.81
   8  -1  -3  125.72    8.79
   9   0  -2   -3.98   18.41
   0  -9  -2   -1.34   18.67
   0  -9  -1 1616.10   48.82
   9   0  -1 1534.70   47.42
   9   0   0  -13.60   15.46
   0  -9   0    1.60   16.19
  -1  -9   0 1402.61   46.13
   9   1   0 1218.19   44.63
   9   1  -1  314.03   21.57
  -1  -9  -1  282.79   18.26
  -1  -9  -2  404.22   24.67
   9   1  -2  384.26   22.86
   8   0  -3  122.31    8.90
   0  -8  -3  158.67   11.22
   2  -6  -4   21.31   20.17
   3  -5  -4    6.67   19.14
   4  -4  -4   52.80    5.28
   5  -3  -4    3.78   17.17
   6  -2  -4    6.88   16.96
   6  -1  -4  297.73   21.51
   5  -2  -4  976.98   36.62
   2  -5  -4 1258.63   44.99
   1  -6  -4  334.66   19.60
  -1  -8  -3  152.25    9.52
   8   1  -3  128.72    5.43
  -2  -9  -1  114.04    9.31
   9   2  -1  128.26    6.31
   9   2   0   -3.67   16.86
  -2  -9   0   -7.09   17.58
  -3  -9   0  119.83    6.93
   9   3   0  126.03    6.93
   9   3  -1  236.81   17.89
  -3  -9  -1  233.76   17.69
  -2  -8  -2   59.99    6.41
   8   2  -2  101.62    6.52
   0  -6  -4   -9.93   21.82
   6   0  -4  -20.48   16.70
   6   1  -4  302.49   22.19
  -1  -6  -4  382.08   26.63
  -2  -7  -3  263.76   17.48
   7   2  -3  205.78   13.60
   8   3  -2  156.34   12.36
  -3  -8  -2  187.11   13.34
   9   4   0   85.13    6.52
  -4  -9   0   97.80    5.12
   8   4  -1    8.27   19.91
  -4  -8  -1   48.10    4.55
  -4  -8  -2  533.25   30.72
   8   4  -2  451.13   30.46
   7   3  -3  152.82   10.76
  -3  -7  -3  159.65   10.86
  -2  -6  -4   -7.14   22.29
   6   2  -4   15.31   19.91
   3  -1  -5  190.21    9.31
   2  -2  -5  -34.65   18.93
   1  -3  -5  203.51   11.84
   0  -3  -5   33.15   25.55
   1  -2  -5  155.82   12.67
   2  -1  -5  165.03   13.65
   3   0  -5   54.77    4.14
   5   2  -4 1039.46   46.13
  -2  -5  -4 1276.32   51.25
  -4  -7  -3   46.65    5.17
   7   4  -3   54.46    5.59
  -5  -8  -1  328.09   21.41
   8   5  -1  366.10   22.29
   8   5   0  231.54   17.69
  -5  -8   0  258.02   18.51
  -5  -7  -2   26.84    4.71
   7   5  -2   18.05   23.22
   6   4  -3  865.95   44.01
  -4  -6  -3  954.80   45.10
  -3  -5  -4    1.29   22.19
   5   3  -4   22.65   20.79
   3   1  -5  136.58    9.26
   2   0  -5 1640.20   51.56
   1  -1  -5   24.26   21.51
   0  -2  -5 1607.31   59.99
  -1  -3  -5  169.63   13.45
  -2  -3  -5   94.75    8.07
  -1  -2  -5  163.48   13.50
   0  -1  -5  152.77   10.24
   1   0  -5  178.48   11.07
   2   1  -5  145.69   12.26
   5   4  -4    6.05   20.84
  -4  -5  -4    9.67   20.43
  -5  -6  -3  180.80   10.55
   6   5  -3  183.23    9.72
  -6  -7  -1  758.48   40.60
   7   6  -1  798.87   41.17
   7   6   0  205.99   13.45
  -6  -7   0  186.80   13.29
  -7  -7   0  922.22   43.60
   7   7   0 1001.50   43.44
  -6  -6  -2  597.64   36.87
   6   6  -2  605.04   38.53
  -4  -4  -4   64.49    5.38
   4   4  -4   58.44    5.48
   2   2  -5    4.34    4.65
   1   1  -5   23.94   22.60
   0   0  -5   19.86   23.94
  -1  -1  -5  -54.92   21.72
  -2  -2  -5  -15.62   22.19
   7  -8   0   28.55   15.41
   8  -7   0   24.51    3.52
   9  -5   0  546.44   29.38
   8  -6   0  102.86    6.46
   7  -7   0  793.91   32.17
   6  -8   0  111.04    8.12
   5  -9   0  526.89   29.17
   5  -9  -1   88.23    4.91
   6  -8  -1  339.21   19.50
   7  -7  -1    7.81   14.58
   8  -6  -1  338.59   23.43
   9  -5  -1   95.11    6.15
   8  -6  -2   10.08   16.29
   7  -7  -2  532.27   29.58
   6  -8  -2   14.89   16.60
   4  -9  -2   74.32    8.74
   5  -8  -2  152.41    9.31
   6  -7  -2  162.70    9.93
   7  -6  -2  145.22   10.60
   8  -5  -2  136.74    7.24
   9  -4  -2   93.50    5.22
  10  -3  -1  103.07    5.53
   9  -4  -1  802.28   34.44
   4  -9  -1  850.69   35.17
   3 -10  -1   94.54    6.57
   3 -10   0  389.17   24.72
  10  -3   0  401.84   24.72
  10  -2   0  267.43   17.84
   2 -10   0  273.07   19.39
   2 -10  -1   63.46    4.29
  10  -2  -1   55.65    4.19
   9  -3  -2  160.84   14.27
   3  -9  -2  189.80   14.74
   4  -8  -3   15.41   17.74
   5  -7  -3  683.75   33.87
   6  -6  -3  -27.57   16.14
   7  -5  -3  683.59   33.25
   8  -4  -3   12.15    3.93
   8  -3  -3  257.40   15.05
   3  -8  -3  293.29   20.48
   2  -9  -2  571.11   32.06
   9  -2  -2  519.60   30.62
  10  -1  -1   10.14   18.93
   1 -10  -1   36.51    4.19
   1 -10   0  148.94   11.58
  10  -1   0  143.15   10.86
  10   0   0  183.39   11.53
   0 -10   0  183.49   13.14
   0 -10  -1   73.18    5.69
  10   0  -1   70.70    4.45
   0 -10  -2   -3.93   19.39
   1  -9  -3  245.09   16.50
   2  -8  -3  519.24   32.27
   8  -2  -3  485.73   29.63
   9  -1  -3  211.68   15.52
   7  -3  -4  192.80   14.17
   6  -4  -4  -17.33   17.17
   5  -5  -4  107.78   10.24
   4  -6  -4    2.74   18.82
   3  -7  -4  217.57   13.24
   2  -7  -4   21.00   19.14
   3  -6  -4   36.56    5.12
   6  -3  -4   20.58    3.93
   7  -2  -4   10.71   17.58
   9   0  -3  106.28    6.83
   0  -9  -3  126.40    6.36
  10   1  -1   41.79    4.40
  -1 -10  -1   46.75    4.45
  -1 -10   0  171.54   10.45
  10   1   0  163.27   11.79
  10   2   0  266.34   15.88
  -2 -10   0  297.01   20.17
  -2 -10  -1   55.96    4.81
  10   2  -1   53.22    4.65
  -1  -9  -3  282.43   18.41
   9   1  -3  268.41   18.00
   7  -1  -4   22.60    4.24
   1  -7  -4   16.91    4.76
   4  -3  -5   19.65   20.89
   3  -4  -5   31.50    4.76
   0  -7  -4 1174.90   48.46
   7   0  -4 1109.74   43.60
  -2  -9  -2  497.15   33.87
   9   2  -2  553.78   35.27
  10   3  -1  104.21    7.09
  -3 -10  -1  102.19    7.71
  -3 -10   0  337.97   26.89
  10   3   0  363.62   22.39
   9   3  -2  198.13   13.70
  -3  -9  -2  196.94   11.95
  -2  -8  -3  511.58   31.75
   8   2  -3  458.37   26.94
   7   1  -4   24.62   20.12
  -1  -7  -4   21.26   21.67
   1  -5  -5   95.83    6.05
   2  -4  -5  968.45   44.32
   3  -3  -5  -22.81   20.07
   4  -2  -5  865.74   38.53
   5  -1  -5   88.95    4.71
   5   0  -5  123.66   10.40
   4  -1  -5   90.56    6.98
   3  -2  -5  139.74   10.19
   2  -3  -5  131.77    9.83
   1  -4  -5  124.02    7.34
   0  -5  -5  152.10   10.65
  -2  -7  -4  -17.17   20.53
   7   2  -4  -20.79   21.36
   8   3  -3  270.27   18.62
  -3  -8  -3  300.16   21.98
  -4  -9  -2   75.30    5.59
   9   4  -2   80.16    5.84
   9   4  -1  813.15   41.79
  -4  -9  -1  846.14   41.94
   9   5   0  569.25   36.46
  -5  -9   0  525.96   35.68
  -5  -9  -1   90.87    5.69
   9   5  -1  106.74    9.21
  -4  -8  -3   26.43   22.13
   8   4  -3   16.08   19.14
   7   3  -4  196.37    8.95
  -3  -7  -4  185.25   14.12
  -1  -5  -5   77.01    6.88
   0  -4  -5    6.93   24.41
   4   0  -5   22.86    4.14
   5   1  -5   65.32    6.21
   4   1  -5  103.33    6.88
  -1  -4  -5  117.40    8.02
  -3  -6  -4   26.69   23.27
   6   3  -4   18.26    5.48
  -5  -8  -2  180.96   12.15
   8   5  -2  160.99    9.88
   8   6   0  103.18    8.22
  -6  -8   0  101.83    5.22
  -6  -8  -1  354.11   22.81
   8   6  -1  326.44   22.65
  -5  -7  -3  684.42   40.29
   7   5  -3  626.19   42.25
   6   4  -4   17.48   21.46
  -4  -6  -4   54.30   21.72
  -2  -4  -5  973.16   49.03
   4   2  -5  858.45   44.99
   4   3  -5   30.98   23.07
   3   2  -5   84.20    5.43
  -3  -4  -5   21.31   23.01
  -6  -7  -2  150.65    9.10
   7   6  -2  148.43    6.62
  -7  -8   0   17.22    4.76
   8   7   0   45.77   21.00
  -7  -7  -1    3.00   20.22
   7   7  -1    6.41   19.55
   7   7  -2  549.49   33.25
  -6  -6  -3  -38.53   21.10
   6   6  -3    2.64   19.76
   5   5  -4   89.94    6.62
  -5  -5  -4   98.47    5.69
  -3  -3  -5  -10.91   22.81
   3   3  -5   -8.07   19.50
   8  -8   0  160.01    9.93
  10  -5   0   18.36   16.70
   9  -6   0  126.81    9.62
   6  -9   0  135.14    8.64
   5 -10   0   -1.60   15.10
   5 -10  -1   98.26    5.59
   6  -9  -1   33.82   17.12
   7  -8  -1   78.40    5.28
   8  -7  -1   75.04    4.34
   9  -6  -1   39.93    4.81
   8  -7  -2  208.37   15.00
   7  -8  -2  208.99   11.69
   5  -9  -2  430.28   27.88
   9  -5  -2  435.25   27.62
  10  -4  -1  153.29   10.03
   4 -10  -1  153.50    9.98
   4 -10   0  126.86    9.36
  10  -4   0  110.57    7.81
  11  -2   0   -8.59   17.74
   2 -11   0   18.72   17.38
   2 -11  -1  610.21   34.86
  10  -3  -2   84.61    5.43
   3 -10  -2   96.97    5.38
   4  -9  -3  198.54   17.38
   5  -8  -3   51.51    4.45
   6  -7  -3   81.51    6.31
   7  -6  -3   55.18    5.22
   8  -5  -3   43.60    4.19
   9  -4  -3  186.85   15.20
   5  -7  -4  -12.72   18.98
   6  -6  -4  210.44   16.19
   9  -3  -3  358.55   23.22
   3  -9  -3  419.58   26.48
   2 -10  -2   26.38   20.79
  10  -2  -2   75.82    4.50
  11  -1  -1  167.98   10.14
   1 -11  -1  160.58   13.55
   1 -11   0  259.31   19.34
  11  -1   0  219.23   15.93
  11   0   0   29.17   17.95
   0 -11   0   17.95   17.89
   0 -11  -1   55.29    5.02
  11   0  -1   52.70    4.71
  10  -1  -2   78.04    7.71
   1 -10  -2   69.82    6.31
   2  -9  -3   15.72   19.14
   9  -2  -3   -0.72   19.50
   8  -3  -4  111.61    6.15
   7  -4  -4  621.79   33.98
   6  -5  -4  437.01   28.70
   5  -6  -4  380.27   27.00
   4  -7  -4  682.09   37.75
   3  -8  -4  107.52    8.69
   2  -8  -4    6.62   20.84
   8  -2  -4  -18.51   19.55
  10   0  -2   37.75    4.50
  11   1  -1  184.01   12.00
  -1 -11  -1  161.67   11.64
  -1 -11   0  254.76   15.83
  11   1   0  239.14   18.20
  11   2   0  -10.65   19.96
  -2 -11   0    1.50   19.34
  -2 -11  -1  528.44   36.15
  10   1  -2   95.42    8.33
  -1 -10  -2   98.88    6.88
   8  -1  -4   34.18   20.64
   1  -8  -4   41.68   22.24
   4  -5  -5   39.87    6.46
   5  -4  -5   55.65    6.98
   6  -2  -5   33.82   20.58
   5  -3  -5  394.60   25.03
   4  -4  -5  -15.67   21.05
   3  -5  -5  380.69   28.75
   2  -6  -5   20.74   25.29
   0  -8  -4    6.52   18.57
   8   0  -4   -9.21   20.12
  -2 -10  -2   58.80    5.22
  10   2  -2   64.39    4.96
  10   3  -2  116.93    7.40
  -3 -10  -2  113.26    5.43
  -2  -9  -3   -5.38   19.14
   9   2  -3  -12.41   21.26
   8   1  -4   17.69   21.67
  -1  -8  -4   15.46   23.12
   1  -6  -5   60.77    6.05
   2  -5  -5   12.00   21.88
   5  -2  -5   -0.31   18.67
   6  -1  -5   27.77    5.84
   6   0  -5  400.03   29.17
   0  -6  -5  522.75   33.46
  -2  -8  -4   10.45   22.24
   8   2  -4   -2.84   21.31
   9   3  -3  358.71   26.38
  -3  -9  -3  458.47   28.34
  10   4  -1  145.69   13.60
  -4 -10  -1  178.53    8.90
  -4 -10   0  131.31    9.41
  10   4   0  125.52    6.72
  10   5   0   -3.05   20.22
  -5 -10   0   42.56   19.91
  -5 -10  -1   73.13    5.22
  -4  -9  -3  207.54   15.05
   9   4  -3  193.21    9.77
   8   3  -4   95.62    7.55
  -3  -8  -4  104.57    6.15
  -1  -6  -5   35.12   23.53
   6   1  -5   24.46   23.63
   6   2  -5   -0.62   23.01
  -2  -6  -5   34.70   24.62
  -5  -9  -2  485.52   33.31
   9   5  -2  448.59   29.06
   9   6   0  146.05   10.45
  -6  -9   0  147.81    8.59
  -6  -9  -1   44.17    4.91
   9   6  -1   45.92    5.17
  -5  -8  -3   40.65   22.91
   8   5  -3   33.67   24.15
   7   4  -4  723.93   42.36
  -4  -7  -4  767.58   42.87
  -2  -5  -5   35.99   22.34
   5   2  -5    5.74    4.81
   2  -1  -6  138.39    9.62
   1  -2  -6  148.22    9.77
   0  -2  -6    5.22   25.39
   1  -1  -6    6.36   24.00
   2   0  -6  -15.05   24.20
   5   3  -5  265.15   18.93
  -3  -5  -5  381.67   23.01
  -5  -7  -4   30.05   21.51
   8   6  -2  -10.55   22.55
  -7  -8  -1   89.11    7.86
   8   7  -1   77.63    5.43
   8   7  -2  227.61   14.33
  -6  -7  -3   51.98   23.53
   7   6  -3   73.39    5.69
   6   5  -4  340.35   27.15
  -5  -6  -4  370.50   24.05
  -4  -5  -5   65.32   26.12
   5   4  -5   10.65   22.29
   2   1  -6  155.51   10.81
   1   0  -6  115.23    6.77
   0  -1  -6  110.83    6.62
  -1  -2  -6  134.98   10.81
  -1  -1  -6   -7.45   22.24
   0   0  -6  340.76   24.36
   1   1  -6   -4.29   23.58
   4   4  -5   18.62   21.41
  -4  -4  -5   -2.69   20.89
  -6  -6  -4  266.65   16.86
   6   6  -4  229.16   14.22
  -8  -8   0  161.67    9.46
   8   8   0  154.22   12.93
   8  -8  -2  262.46   17.89
   6 -10  -1   18.20    4.24
   7  -9  -1  196.52   11.74
   8  -8  -1    3.62    3.88
   9  -7  -1  195.70   11.79
  10  -6  -1    9.05   17.79
  10  -6   0   86.57    6.31
   9  -7   0   30.56   17.48
   7  -9   0   -0.52   17.58
   6 -10   0   81.14    5.74
   4 -11   0   91.07    6.83
  11  -4   0   83.83    7.19
  11  -4  -1   84.30    5.79
  10  -5  -1   77.37    6.36
   4 -11  -1   95.06    4.81
   5 -10  -2   42.25    4.50
   6  -9  -2  241.93   15.31
   9  -6  -2  221.97   17.07
  10  -5  -2   20.48   20.74
   5  -9  -3   41.27    4.55
   6  -8  -3  128.00    8.02
   7  -7  -3   14.89   16.86
   8  -6  -3  118.12    9.21
   9  -5  -3   46.91    4.50
  10  -4  -2   10.96   17.12
   4 -10  -2   20.64   20.17
   3 -11  -1  175.58   11.89
  11  -3  -1  178.37   13.45
  11  -3   0  472.43   30.51
   3 -11   0  516.03   32.27
  11  -2  -1  584.40   32.17
   2 -11  -2    5.95   21.00
  11  -2  -2   27.82   21.10
  10  -3  -3   32.37   21.51
   3 -10  -3    2.22   19.19
   6  -7  -4   32.58   21.72
   7  -6  -4   20.17   21.46
   8  -4  -4  150.91    8.64
   7  -5  -4   21.67   19.29
   4  -8  -4  137.88   10.19
   2 -10  -3  117.71    7.86
  10  -2  -3  101.93    7.55
  11  -1  -2  144.60    9.77
   1 -11  -2  152.20   10.96
   0 -11  -2  327.42   17.48
  11   0  -2  304.92   21.82
  10  -1  -3  142.01    7.14
   1 -10  -3  151.17   11.02
   2  -9  -4  736.24   42.25
   9  -2  -4  692.64   39.30
   4  -6  -5  433.59   30.93
   5  -5  -5   -8.64   20.79
   6  -4  -5  359.33   27.10
   9  -1  -4  142.17    5.53
   1  -9  -4  147.39    8.33
   0 -10  -3   93.87    8.07
  10   0  -3   85.44    6.52
  11   1  -2  109.17    8.84
  -1 -11  -2  141.19    9.98
  11   2  -1  591.54   36.93
  -2 -11  -2   35.06    4.86
  11   2  -2   28.96   19.45
  10   1  -3  129.76   11.02
  -1 -10  -3  139.02    9.83
   0  -9  -4   23.12   21.98
   9   0  -4  -27.88   21.62
   7  -2  -5  100.43    8.90
   6  -3  -5   94.95    5.48
   3  -6  -5   82.90    5.43
   2  -7  -5  132.24    9.72
   1  -7  -5  245.03   15.10
   7  -1  -5  160.94   11.38
   9   1  -4  120.55    6.62
  -1  -9  -4  139.74    9.52
  -2 -10  -3  120.14    8.64
  10   2  -3  110.36    8.84
  -3 -11  -1  213.90   13.39
  11   3  -1  210.64   15.41
  11   3   0  567.70   35.99
  -3 -11   0  583.00   36.15
  -4 -11   0   87.35    6.88
  11   4   0   83.21    5.22
  11   4  -1   79.02    6.36
  -4 -11  -1   75.30    7.81
  10   3  -3  -28.39   21.15
  -3 -10  -3   18.05   23.63
  -2  -9  -4  881.62   45.41
   9   2  -4  815.01   45.51
   7   0  -5   25.13   21.93
   0  -7  -5   41.89   23.84
   3  -3  -6  122.93    7.34
  -1  -7  -5  191.30   15.00
   7   1  -5  187.89   12.15
  10   4  -2   54.41    5.12
  -4 -10  -2   30.56   22.70
  10   5  -1   25.55   24.20
  -5 -10  -2   55.60    5.48
  10   5  -2   40.70   24.67
   7   2  -5  116.26    6.77
  -2  -7  -5  125.98    6.88
   1  -4  -6   38.37    6.15
   2  -3  -6   31.96   26.89
   3  -2  -6   53.42    5.53
   4  -1  -6   29.43    5.07
   4   0  -6  410.22   31.39
   3  -1  -6  -17.69   21.51
   2  -2  -6  542.10   36.82
   1  -3  -6   18.41   25.03
   0  -4  -6  519.86   33.25
   8   4  -4  137.93    8.38
  -4  -8  -4  143.15   13.76
  -5  -9  -3   50.27    5.28
   9   5  -3   54.20    5.59
  -6 -10  -1   17.33   22.50
  10   6  -1   24.15   23.48
  10   6   0   98.47    5.64
  -6 -10   0   85.33    6.93
  -6  -9  -2  297.22   22.03
   9   6  -2  302.54   19.50
   6   3  -5   91.80    6.15
  -3  -6  -5   92.16    8.07
  -1  -4  -6   47.42    6.15
   0  -3  -6  254.71   19.34
   3   0  -6  217.57   16.08
   4   1  -6   -6.67   21.72
   3   1  -6    1.29   20.22
  -1  -3  -6  -37.24   28.39
  -2  -4  -6    2.07   24.93
  -4  -6  -5  407.79   28.19
   6   4  -5  382.39   26.07
   7   5  -4  -24.00   21.98
  -6  -8  -3  156.70   10.76
   8   6  -3  131.72   11.07
  -7  -9  -1  182.82   10.19
   9   7  -1  198.59   14.12
   9   7   0   46.13   22.45
  -7  -9   0   14.07   21.98
  -6  -7  -4   53.01   23.48
   7   6  -4   38.22    6.26
  -2  -3  -6   50.01    5.90
   3   2  -6   37.13   23.22
   3   3  -6   41.58   27.10
   2   2  -6  361.91   22.96
  -2  -2  -6  411.36   28.50
  -3  -3  -6  100.54    6.46
  -5  -5  -5    9.77   24.62
   5   5  -5   21.72   21.82
   7   7  -3  -27.46   23.22
   8   8  -2  325.35   19.19
  -8  -8  -1  -18.05   21.67
   8   8  -1  -14.07   21.36
   7 -10  -1   26.32   19.76
   8  -9  -1  160.99   14.79
   9  -8  -1  198.23    9.52
  10  -7  -1   45.56    6.10
  10  -7   0  108.09    5.69
   9  -8   0   57.72    4.55
   8  -9   0   67.59    6.00
   7 -10   0   98.99    5.64
   5 -11   0   47.73    4.40
  11  -5   0   36.67   19.03
  11  -5  -1   92.57    6.36
   5 -11  -1   34.96   21.88
   6 -10  -2  170.15    8.90
   7  -9  -2    1.45   19.70
   9  -7  -2   24.05   18.51
  10  -6  -2  190.58   12.05
   5 -10  -3  176.56   15.41
   6  -9  -3   94.85    6.41
   7  -8  -3  158.77   12.36
   8  -7  -3  168.70   11.43
   9  -6  -3  100.59    7.34
  11  -4  -2  258.22   18.36
   4 -11  -2  251.03   19.60
  12  -3   0   45.36   19.19
   3 -12   0   35.68    4.45
   2 -12   0  116.73    7.19
  12  -2   0  127.74    8.53
  12  -2  -1   24.15   19.86
   2 -12  -1   25.55    4.50
   3 -11  -2  311.13   14.33
  11  -3  -2  243.07   20.32
  10  -4  -3   58.03    4.91
   4 -10  -3   66.87    5.02
   6  -8  -4  -17.95   21.31
   7  -7  -4   15.67   20.17
   8  -6  -4  -22.81   20.53
   9  -4  -4   18.93   21.88
   8  -5  -4   39.87    5.22
   5  -8  -4   42.41    4.86
   4  -9  -4   17.17   22.24
   2 -11  -3   95.83    7.34
   1 -12  -1   24.10   19.81
  12  -1  -1    3.41   19.81
  12  -1   0  238.26   16.60
   1 -12   0  261.07   15.88
   0 -12   0   10.24   19.81
  12   0   0   25.70   19.08
  12   0  -1   -0.52   19.24
   0 -12  -1   -0.16   19.96
  11  -1  -3  208.52   14.58
   1 -11  -3  217.06   15.67
   3  -9  -4   26.84    5.12
   9  -3  -4   16.45   20.95
   4  -7  -5   67.28    7.24
   5  -6  -5  101.73    8.43
   6  -5  -5  100.54    9.72
   7  -4  -5   59.37    5.12
   1 -10  -4   17.79   21.36
   0 -11  -3    0.36   20.43
  11   0  -3  -22.50   21.00
  -1 -12  -1    4.34   19.24
  12   1  -1    9.15   20.07
  12   1   0  276.06   14.64
  -1 -12   0  259.83   16.24
  -2 -12   0  113.78    7.29
  12   2   0  122.26    7.14
  12   2  -1   19.91    4.86
  -2 -12  -1   23.01   21.82
  11   1  -3  253.41   17.58
  -1 -11  -3  260.03   15.36
   0 -10  -4  -28.86   23.22
  10   0  -4  -30.62   22.55
   8  -2  -5  149.31    9.83
   7  -3  -5   12.15   23.43
   3  -7  -5   50.99   24.62
   2  -8  -5  183.13   12.21
   1  -8  -5   40.80    5.69
   8  -1  -5   54.66    5.22
  -1 -10  -4   11.89   22.65
  -2 -11  -3  104.57    7.24
  12   3   0   21.57   21.46
  -3 -12   0   33.77   20.07
  -3 -11  -2  267.43   18.41
  11   3  -2  217.06    9.46
   8   0  -5  -18.51   24.36
   0  -8  -5   23.17    5.59
   4  -4  -6  224.50   12.72
   5  -2  -6  217.52   11.22
   4  -3  -6  162.39   12.26
   3  -4  -6  146.82   10.45
   2  -5  -6  217.52   18.31
  -1  -8  -5   52.13    5.79
   8   1  -5   42.36   23.43
  11   4  -2  212.82   13.03
  -4 -11  -2  250.83   16.81
  -5 -11   0   27.20   23.32
  11   5   0   43.24   22.45
  11   5  -1   63.30    5.69
  -5 -11  -1   56.58    7.24
  10   4  -3   19.14   24.36
  -4 -10  -3   61.03    5.59
  -3  -9  -4   -4.65   24.62
   9   3  -4   41.37   23.32
   8   2  -5  145.89    6.72
  -2  -8  -5  156.70   12.46
   1  -5  -6  151.07    8.27
   2  -4  -6   -2.43   24.62
   4  -2  -6   10.40    4.86
   5  -1  -6  106.07    8.38
   5   0  -6   16.34   21.41
   0  -5  -6   34.03   23.84
   9   4  -4   37.55   24.93
  -4  -9  -4   13.29   22.24
  -5 -10  -3  188.97    9.67
  -6 -10  -2  154.01    7.40
  10   6  -2  132.96    8.43
   7   3  -5   22.08   23.84
  -3  -7  -5   27.36   24.88
  -1  -5  -6  123.29    9.62
   5   1  -6   89.37    7.65
   5   2  -6  181.01    7.03
  -2  -5  -6  217.06   13.24
  -4  -7  -5   52.34    5.90
   7   4  -5   50.22   25.29
   8   5  -4    4.19   27.10
  -5  -8  -4   29.69   24.41
  -6  -9  -3   75.09   26.43
   9   6  -3   70.08    6.21
  -7 -10  -1   36.36    5.28
  10   7  -1   23.69   25.13
  10   7   0   65.37    6.10
  -7 -10   0   22.91   26.12
  -7  -9  -2   36.25   22.76
   9   7  -2   14.79   23.48
  -6  -8  -4    9.67   23.27
   8   6  -4    6.83   23.63
   4   2  -6   37.08   22.70
   4   3  -6  120.29    6.21
  -3  -4  -6  143.62    6.93
  -5  -6  -5  110.36    6.77
   6   5  -5   96.35    8.17
  -7  -8  -3  191.77   10.03
   8   7  -3  185.15   11.89
  -8  -9  -1  236.19   17.07
   9   8  -1  232.05   18.62
   9   8   0   85.80    5.90
  -8  -9   0   80.63    7.03
  -7  -7  -4  -49.44   23.69
   7   7  -4  -37.39   24.57
  -4  -4  -6  232.42   13.34
   4   4  -6  152.67    6.98
   8 -10   0   25.44    4.40
   9  -9   0  411.61   26.43
  10  -8   0   36.87   20.22
  11  -6   0   25.13   19.03
   6 -11   0   40.34    5.28
   6 -11  -1  270.74   16.86
  11  -6  -1  273.74   20.53
  10  -7  -2  108.55    6.52
   9  -8  -2  131.98    9.41
   8  -9  -2  119.57    9.41
   7 -10  -2  124.12    6.88
  10  -6  -3    2.59   20.43
   9  -7  -3  349.55   29.01
   8  -8  -3   -6.05   20.07
   7  -9  -3  405.82   28.08
   6 -10  -3   -1.29   21.98
   5 -11  -2   56.11    4.81
  11  -5  -2   16.19   21.51
  12  -4  -1   -9.26   20.32
   4 -12  -1   22.29    4.50
   4 -12   0   -2.28   18.05
  12  -4   0  -30.05   19.81
   3 -12  -1  102.30    7.29
  12  -3  -1  117.81    8.02
  12  -3  -2   16.24   19.50
   3 -12  -2   36.62   21.77
   4 -11  -3   48.51    5.02
  10  -5  -3  175.22   12.52
  11  -4  -3   47.73   22.76
   8  -7  -4  146.82   10.34
   7  -8  -4  165.70   13.45
   5  -9  -4   35.22   22.29
   9  -5  -4    5.74   21.67
  11  -3  -3  104.62    6.46
   3 -11  -3  112.48    7.34
   2 -12  -2   32.22   21.93
  12  -2  -2   64.59    5.02
  12  -1  -2   67.96    7.29
   1 -12  -2   65.58    5.28
  11  -2  -3   96.56    6.46
  10  -3  -4   -5.22   22.50
   3 -10  -4   10.03   23.01
   8  -4  -5   22.50   23.17
   7  -5  -5  345.88   24.26
   6  -6  -5    6.36   21.10
   5  -7  -5  326.08   21.05
   4  -8  -5    9.15   23.69
   2 -10  -4    8.38   23.94
  10  -2  -4   56.42    6.62
   0 -12  -2  -12.21   20.95
  12   0  -2   16.03   20.53
  12   1  -2   68.52    5.38
  -1 -12  -2   40.18   23.32
  10  -1  -4  -11.53   20.07
   3  -8  -5  145.22    7.60
   8  -3  -5  108.30   10.40
   9  -1  -5  103.95   10.50
   1  -9  -5  118.59    8.64
  -2 -12  -2   71.27    5.22
  12   2  -2   56.89    6.21
  -3 -12  -1  107.62    5.48
  12   3  -1   71.06    7.09
  12   3  -2   23.79   23.12
  -3 -12  -2   22.45    4.91
  11   2  -3   93.87    5.79
  10   1  -4  -23.74   21.62
   0  -9  -5   81.35    6.10
   9   0  -5   88.64    7.86
   6  -3  -6   -1.45   25.03
   5  -4  -6   30.10    5.38
   4  -5  -6    8.27   26.07
   3  -6  -6    6.21   26.69
   2  -6  -6  165.75   10.50
   3  -5  -6   35.17   25.29
   5  -3  -6  -25.91   23.12
   6  -2  -6  163.99   12.21
   9   1  -5   96.40    7.76
  -1  -9  -5  103.33    9.72
  -2 -10  -4   46.39    5.64
  10   2  -4   47.42   24.98
  11   3  -3  101.93    9.62
  -3 -11  -3  127.02    8.07
  12   4  -1   10.40   23.38
  -4 -12  -1    2.69   22.29
  -4 -12   0   -7.34   22.03
  12   4   0   11.17   22.13
  -4 -11  -3   31.81   21.98
  11   4  -3   38.58   23.58
  10   3  -4    6.98   24.62
  -3 -10  -4  -16.14   24.10
   6  -1  -6   47.01    5.38
   1  -6  -6   54.41   27.31
   0  -6  -6   42.77    6.15
   6   0  -6   27.72   23.74
  -5 -11  -2   54.61    5.33
  11   5  -2   40.65   25.44
  11   6   0   45.77   23.89
  -6 -11   0   25.86   20.95
  -6 -11  -1  305.23   18.93
  11   6  -1  282.63   11.95
  10   5  -3  179.87    9.10
  -3  -8  -5  114.19    7.29
   8   3  -5   86.47   11.02
   6   1  -6    8.07   25.34
  -1  -6  -6   49.34    6.21
  -2  -6  -6  139.69   13.86
   6   2  -6  140.36   10.08
   8   4  -5   35.01   24.05
  -4  -8  -5   21.31   25.96
  -5  -9  -4   38.43    5.74
   9   5  -4   60.25    5.95
  10   6  -3  -39.36   26.79
  10   7  -2   77.16   29.48
   6   3  -6   12.98   26.69
  -3  -6  -6   -7.24   25.91
  -3  -5  -6   42.46   24.67
   5   3  -6    5.07   22.60
   7   5  -5  260.39   16.14
  -5  -7  -5  348.37   17.74
   9   7  -3  412.29   19.96
  10   8  -1  231.02   15.62
  -8 -10   0   40.34   23.69
  10   8   0   38.84   25.24
   9   8  -2  134.00    6.67
   8   7  -4  100.64   31.75
   5   4  -6   15.20    5.59
  -4  -5  -6   40.96   27.15
   0  -1  -7   97.33    8.59
   1   0  -7  112.02    6.93
   0   0  -7  -16.29   25.03
   6   6  -5  -26.53   25.39
  -6  -6  -5   24.77   25.24
   8   8  -3   -7.55   24.05
   9   9  -1    4.55   22.19
  -9  -9   0  397.91   19.19
   9   9   0  457.44   28.24
  10  -8  -2   34.29   18.88
   9  -9  -2   87.35    5.53
   8 -10  -2    6.72   18.77
   7 -11  -1   38.43   20.27
  11  -7  -1   49.65   20.74
  12  -6   0   48.72    4.81
  11  -7   0  194.66    6.83
   7 -11   0  221.76   13.70
   6 -12   0   48.25    4.81
   5 -12   0  111.92    6.83
  12  -5   0  115.79    6.83
  12  -5  -1    5.48    4.55
   5 -12  -1  -20.74   20.48
   6 -11  -2   67.03    5.90
  11  -6  -2   66.04    5.17
  10  -7  -3   27.88    4.86
   9  -8  -3   45.67   21.62
   8  -9  -3   47.53    6.41
   7 -10  -3   26.74   22.13
   5 -11  -3  212.66    9.62
  11  -5  -3  213.44   10.96
  12  -4  -2   42.20   21.93
   4 -12  -2   54.04   21.05
  13  -3   0   68.99   21.46
   3 -13   0   32.79   21.82
   2 -13   0    9.67   20.17
  13  -2   0    6.88   20.48
  13  -2  -1    8.27   21.26
   2 -13  -1   25.29   19.55
   5 -10  -4   23.32   23.07
   6  -9  -4  217.47   12.98
   9  -6  -4  208.21   12.62
  10  -5  -4   16.50   21.41
  10  -4  -4    7.09   20.89
   4 -10  -4   -3.31   22.70
   2 -12  -3  -44.32   21.20
  12  -2  -3  -19.81   23.48
   1 -13  -1  110.47    6.52
  13  -1  -1  150.50   12.77
  13  -1   0  100.07    6.83
   1 -13   0  100.80    6.00
   0 -13   0  -27.67   20.27
  13   0   0  -48.56   20.12
  13   0  -1  191.51   12.00
   0 -13  -1  195.54   11.84
  12  -1  -3   45.51   23.58
   1 -12  -3   28.50   22.70
   2 -11  -4   21.10   22.60
  11  -2  -4   37.08   23.07
   8  -5  -5   23.89   21.72
   7  -6  -5   63.15    5.59
   6  -7  -5   59.32    5.59
   5  -8  -5   -0.36   24.51
   3  -9  -5  229.57   12.57
   9  -3  -5  212.45   16.50
  11  -1  -4  104.93    6.10
   1 -11  -4  101.31    7.14
   0 -12  -3  132.34   11.43
  12   0  -3  129.71    8.12
  -1 -13  -1  157.84    7.96
  13   1  -1  159.39   12.10
  13   1   0  115.69    8.17
  -1 -13   0  111.66    9.88
  -2 -13   0    1.24   20.79
  13   2   0   40.55   20.89
  13   2  -1   30.25   22.65
  -2 -13  -1   18.31   21.72
  12   1  -3   12.62   24.67
  -1 -12  -3   49.23   23.27
   0 -11  -4  496.02   29.89
  11   0  -4  493.74   28.65
   9  -2  -5    0.21   22.45
   2  -9  -5    0.41   22.50
   7  -3  -6  156.19    8.90
   6  -4  -6   -9.52   23.69
   5  -5  -6  111.97   11.33
   4  -6  -6  -25.03   24.77
   3  -7  -6  158.31   11.22
  11   1  -4  111.24    7.19
  -1 -11  -4  101.99    6.00
  -2 -12  -3   -5.53   21.05
  12   2  -3  -46.96   24.31
  13   3   0   75.09    8.84
  -3 -13   0   60.41    5.33
  -2 -11  -4   40.29   24.98
  11   2  -4  -38.06   25.13
   2  -7  -6   -5.43   25.08
   7  -2  -6  -19.45   23.38
   7  -1  -6   38.89   24.31
   1  -7  -6   55.03    6.41
  12   4  -2   43.03    5.64
  -4 -12  -2   33.41   24.10
  -5 -12   0  144.70   10.19
  12   5   0  153.24   13.08
  12   5  -1   16.65   23.79
  -5 -12  -1   25.34   21.57
   9   2  -5    7.34   25.91
  -2  -9  -5   15.00   23.79
   0  -7  -6  204.44   10.45
   7   0  -6  171.91    8.33
   7   1  -6   54.77    5.79
  -1  -7  -6   65.27    6.31
  -3  -9  -5  207.95   13.91
   9   3  -5  197.71   13.65
  10   4  -4  -15.15   24.00
  -4 -10  -4  -37.18   23.43
  -5 -11  -3  278.75   16.86
  11   5  -3  244.26   13.50
  12   6   0   51.98   25.65
  -6 -12   0   61.70    5.59
  -6 -11  -2   59.53    7.29
  11   6  -2   61.44   26.84
  -5 -10  -4   19.81   26.32
  10   5  -4   18.88    5.84
  -2  -7  -6   54.77   24.36
   7   2  -6   -5.84   23.12
   3  -2  -7  189.59   13.34
   2  -3  -7  179.51   14.17
   1  -3  -7   27.82   28.39
   2  -2  -7  -20.64   26.22
   3  -1  -7   28.86   23.94
  -3  -7  -6  147.91    7.81
  -7 -11  -1   29.69   20.38
  11   7  -1   41.48   24.72
  11   7   0  295.20   19.03
  -7 -11   0  289.36   16.03
  10   7  -3   22.50   27.93
  -6  -9  -4  258.07   19.60
   9   6  -4  230.86    9.67
   8   5  -5  -23.58   26.22
  -5  -8  -5  -13.19   25.86
   3   0  -7  -17.95   26.43
   2  -1  -7   71.63    6.46
   1  -2  -7   69.87   10.24
   0  -3  -7    1.76   27.31
  -1  -3  -7  -23.79   28.08
   0  -2  -7  103.28    7.03
   1  -1  -7   -9.21   25.70
   2   0  -7  128.41    7.65
   3   1  -7   24.82   21.98
   6   4  -6   -7.09   23.69
  -4  -6  -6   32.01   26.12
  10   8  -2  -25.60   25.86
   9   8  -3    6.36   27.51
   7   6  -5   25.60   28.96
  -6  -7  -5   56.89    6.10
   3   2  -7  148.84   10.81
   2   1  -7   27.15   29.74
  -1  -2  -7   35.01   27.57
  -2  -3  -7  212.82    8.79
  -2  -2  -7   -3.78   25.65
  -1  -1  -7    7.40   25.39
   1   1  -7  -14.17   22.65
   2   2  -7  -16.24   23.32
   5   5  -6   99.14    7.03
  -5  -5  -6  143.67   11.22
   9   9  -2  155.51   10.86
  -1   0   1 4341.79   41.84
   0   0   0    0.00    0.00
;
_shelx_hkl_checksum              26768
#END Tags that were not found in dictionaries
loop_
_space_group_symop_operation_xyz
'x, y, z'
'-x, -y, z'
'y, -x, -z'
'-y, x, -z'
'-x+1/2, y+1/2, -z+1/2'
'x+1/2, -y+1/2, -z+1/2'
'-y+1/2, -x+1/2, z+1/2'
'y+1/2, x+1/2, z+1/2'
loop_
_atom_site_label
_atom_site_type_symbol
_atom_site_fract_x
_atom_site_fract_y
_atom_site_fract_z
_atom_site_U_iso_or_equiv
_atom_site_adp_type
_atom_site_occupancy
_atom_site_site_symmetry_order
_atom_site_calc_flag
Se1 Se 0.51302(6) 0.27460(7) 0.06295(16) 0.0214(2) Uani 1 1 d
O1 O 0.6029(6) 0.3827(5) -0.1612(12) 0.0220(11) Uani 1 1 d
O2 O 0.6030(6) 0.2585(6) 0.3164(12) 0.0271(12) Uani 1 1 d
O3 O 0.4461(6) 0.1566(6) -0.1083(13) 0.0311(14) Uani 1 1 d
loop_
_atom_site_aniso_label
_atom_site_aniso_U_11
_atom_site_aniso_U_22
_atom_site_aniso_U_33
_atom_site_aniso_U_23
_atom_site_aniso_U_13
_atom_site_aniso_U_12
Se1 0.0220(4) 0.0196(3) 0.0225(3) 0.0004(4) -0.0003(3) 0.0002(2)
O1 0.023(2) 0.022(2) 0.020(2) 0.000(2) -0.002(2) -0.0055(18)
O2 0.030(2) 0.029(3) 0.023(3) 0.005(2) -0.002(2) 0.003(2)
O3 0.030(3) 0.027(2) 0.037(4) -0.009(2) -0.001(3) 0.000(2)
loop_
_atom_type_symbol
_atom_type_description
_atom_type_scat_dispersion_real
_atom_type_scat_dispersion_imag
_atom_type_scat_source
O O 0.0106 0.0060 'International Tables Vol C Tables 4.2.6.8 and 6.1.1.4'
Se Se -0.0929 2.2259 'International Tables Vol C Tables 4.2.6.8 and 6.1.1.4'
loop_
_geom_angle_atom_site_label_1
_geom_angle_atom_site_label_2
_geom_angle_atom_site_label_3
_geom_angle
_geom_angle_site_symmetry_3
O3 Se1 O2 128.5(3) .
O3 Se1 O1 104.1(3) .
O2 Se1 O1 109.8(3) .
O3 Se1 O1 110.4(3) 3_565
O2 Se1 O1 101.9(3) 3_565
O1 Se1 O1 98.2(3) 3_565
Se1 O1 Se1 122.4(3) 4_655
loop_
_geom_bond_atom_site_label_1
_geom_bond_atom_site_label_2
_geom_bond_distance
_geom_bond_site_symmetry_2
Se1 O3 1.567(6) .
Se1 O2 1.573(6) .
Se1 O1 1.771(6) .
Se1 O1 1.778(5) 3_565
O1 Se1 1.778(5) 4_655
