
#(C) 2018 by FIZ Karlsruhe - Leibniz Institute for Information Infrastructure.  All rights reserved.
data_104611-ICSD
_database_code_ICSD 104611
_audit_creation_date 2004-10-01
_audit_update_record 2013-02-01
_chemical_name_systematic 'Iridium zirconium (3/5)'
_chemical_formula_structural 'Ir3 Zr5'
_chemical_formula_sum 'Ir3 Zr5'
_exptl_crystal_density_diffrn 10.7
_publ_section_title
'Zr5 Ir3 with a deformation superstructure of the Mn5 Si3 structure'
loop_
_citation_id
_citation_journal_full
_citation_year
_citation_journal_volume
_citation_page_first
_citation_page_last
_citation_journal_id_ASTM
primary 'Acta Crystallographica, Section C: Crystal Structure Communications'
1986 42 1101 1105 ACSCEE
loop_
_publ_author_name
'Cenzual, K.'
'Parthe, E.'
_cell_length_a 7.9306(7)
_cell_length_b 7.9306
_cell_length_c 17.7010(2)
_cell_angle_alpha 90.
_cell_angle_beta 90.
_cell_angle_gamma 120.
_cell_volume 964.14
_cell_formula_units_Z 6
_symmetry_space_group_name_H-M 'P 61 2 2'
_symmetry_Int_Tables_number 178
_refine_ls_R_factor_all 0.046
loop_
_symmetry_equiv_pos_site_id
_symmetry_equiv_pos_as_xyz
1 'x, x-y, -z'
2 '-x+y, y, -z+1/2'
3 '-y, -x, -z'
4 '-x, -x+y, -z+2/3'
5 'x-y, -y, -z'
6 'y, x, -z+1/3'
7 'x-y, x, z'
8 'y, -x+y, z'
9 '-x, -y, z+1/2'
10 '-x+y, -x, z+2/3'
11 '-y, x-y, z+1/3'
12 'x, y, z'
loop_
_atom_type_symbol
_atom_type_oxidation_number
Ir0+ 0
Zr0+ 0
loop_
_atom_site_label
_atom_site_type_symbol
_atom_site_symmetry_multiplicity
_atom_site_Wyckoff_symbol
_atom_site_fract_x
_atom_site_fract_y
_atom_site_fract_z
_atom_site_B_iso_or_equiv
_atom_site_occupancy
_atom_site_attached_hydrogens
Ir1 Ir0+ 6 a 0.6111(2) 0 0 0.0075(4) 1. 0
Ir2 Ir0+ 12 c 0.4137(2) 0.0187(2) 0.1444(1) 0.0091(3) 1. 0
Zr1 Zr0+ 6 a 0.2480(6) 0 0 0.0097(9) 1. 0
Zr2 Zr0+ 6 b 0.3710(4) 0.742 0.25 0.0084(9) 1. 0
Zr3 Zr0+ 6 b 0.6557(3) 0.3114 0.25 0.0072(9) 1. 0
Zr4 Zr0+ 12 c 0.2384(5) 0.0062(5) 0.3396(2) 0.0091(6) 1. 0
#End of TTdata_104611-ICSD