
#(C) 2017 by FIZ Karlsruhe - Leibniz Institute for Information Infrastructure.  All rights reserved.
data_25632-ICSD
_database_code_ICSD 25632
_audit_creation_date 1980-01-01
_audit_update_record 2006-04-01
_chemical_name_systematic 'Silicon oxide - fibrous'
_chemical_formula_structural 'Si O2'
_chemical_formula_sum 'O2 Si1'
_chemical_name_structure_type SiS2(Ibam)
_exptl_crystal_density_diffrn 1.96
_publ_section_title 'Zur Kenntnis der faserigen Siliciumdioxyd-Modifikation'
loop_
_citation_id
_citation_journal_full
_citation_year
_citation_journal_volume
_citation_page_first
_citation_page_last
_citation_journal_id_ASTM
primary 'Zeitschrift fuer Anorganische und Allgemeine Chemie (1950) (DE)' 1954
276 95 112 ZAACAB
loop_
_publ_author_name
'Weiss, A.'
_cell_length_a 4.72
_cell_length_b 5.16
_cell_length_c 8.36
_cell_angle_alpha 90.
_cell_angle_beta 90.
_cell_angle_gamma 90.
_cell_volume 203.61
_cell_formula_units_Z 4
_symmetry_space_group_name_H-M 'I c m a'
_symmetry_Int_Tables_number 72
loop_
_symmetry_equiv_pos_site_id
_symmetry_equiv_pos_as_xyz
1 '-x, y+1/2, z'
2 'x, y+1/2, -z'
3 'x, -y, z'
4 '-x, -y, -z'
5 'x, -y+1/2, -z'
6 '-x, -y+1/2, z'
7 '-x, y, -z'
8 'x, y, z'
9 '-x+1/2, y, z+1/2'
10 'x+1/2, y, -z+1/2'
11 'x+1/2, -y+1/2, z+1/2'
12 '-x+1/2, -y+1/2, -z+1/2'
13 'x+1/2, -y, -z+1/2'
14 '-x+1/2, -y, z+1/2'
15 '-x+1/2, y+1/2, -z+1/2'
16 'x+1/2, y+1/2, z+1/2'
loop_
_atom_type_symbol
_atom_type_oxidation_number
Si4+ 4
O2- -2
loop_
_atom_site_label
_atom_site_type_symbol
_atom_site_symmetry_multiplicity
_atom_site_Wyckoff_symbol
_atom_site_fract_x
_atom_site_fract_y
_atom_site_fract_z
_atom_site_B_iso_or_equiv
_atom_site_occupancy
_atom_site_attached_hydrogens
Si1 Si4+ 4 a 0 0.25 0 . 1. 0
O1 O2- 8 j 0.209(5) 0 0.110(5) . 1. 0
#End of TTdata_25632-ICSD