
#(C) 2017 by FIZ Karlsruhe - Leibniz Institute for Information Infrastructure.  All rights reserved.
data_157861-ICSD
_database_code_ICSD 157861
_audit_creation_date 2008-02-01
_chemical_name_systematic 'Mercury - gamma, HP'
_chemical_formula_structural Hg
_chemical_formula_sum Hg1
_exptl_crystal_density_diffrn 18.21
_cell_measurement_pressure 20000000.
_publ_section_title

;
Crystal structure of the high-pressure gamma phase of mercury: a novel
monoclinic distortion of the close-packed structure
;
loop_
_citation_id
_citation_journal_full
_citation_year
_citation_journal_volume
_citation_page_first
_citation_page_last
_citation_journal_id_ASTM
primary 'Journal of the Physical Society of Japan' 2007 76 023601-1 023601-5
JUPSAU
loop_
_publ_author_name
'Takemura, K.'
'Fujihisa, H.'
'Nakamoto, Y.'
'Nakano, S.'
'Ohishi, Y.'
_cell_length_a 5.179(1)
_cell_length_b 2.797(1)
_cell_length_c 7.964(1)
_cell_angle_alpha 90.
_cell_angle_beta 107.96(1)
_cell_angle_gamma 90.
_cell_volume 109.74
_cell_formula_units_Z 6
_symmetry_space_group_name_H-M 'C 1 2/m 1'
_symmetry_Int_Tables_number 12
_refine_ls_R_factor_all 0.075
loop_
_symmetry_equiv_pos_site_id
_symmetry_equiv_pos_as_xyz
1 '-x, y, -z'
2 '-x, -y, -z'
3 'x, -y, z'
4 'x, y, z'
5 '-x+1/2, y+1/2, -z'
6 '-x+1/2, -y+1/2, -z'
7 'x+1/2, -y+1/2, z'
8 'x+1/2, y+1/2, z'
loop_
_atom_type_symbol
_atom_type_oxidation_number
Hg0+ 0
loop_
_atom_site_label
_atom_site_type_symbol
_atom_site_symmetry_multiplicity
_atom_site_Wyckoff_symbol
_atom_site_fract_x
_atom_site_fract_y
_atom_site_fract_z
_atom_site_B_iso_or_equiv
_atom_site_occupancy
_atom_site_attached_hydrogens
Hg1 Hg0+ 2 a 0 0 0 . 1. 0
Hg2 Hg0+ 4 i 0.762(1) 0 0.3333 . 1. 0
#End of TTdata_157861-ICSD