
#(C) 2017 by FIZ Karlsruhe - Leibniz Institute for Information Infrastructure.  All rights reserved.
data_77377-ICSD
_database_code_ICSD 77377
_audit_creation_date 2003-04-01
_chemical_name_systematic 'Phosphorus(V) oxide'
_chemical_formula_structural 'P2 O5'
_chemical_formula_sum 'O5 P2'
_exptl_crystal_density_diffrn 2.7
_publ_section_title 'Die Krystallstruktur des stabilen Phosphorpentoxyds'
loop_
_citation_id
_citation_journal_full
_citation_year
_citation_journal_volume
_citation_page_first
_citation_page_last
_citation_journal_id_ASTM
primary 'Recueil des Travaux Chimiques des Pays-Bas et de la Belgique' 1941 60
413 427 RTCPA3
loop_
_publ_author_name
'de Decker, H.C.J.'
_cell_length_a 16.3
_cell_length_b 8.14
_cell_length_c 5.26
_cell_angle_alpha 90.
_cell_angle_beta 90.
_cell_angle_gamma 90.
_cell_volume 697.91
_cell_formula_units_Z 8
_symmetry_space_group_name_H-M 'F d d 2'
_symmetry_Int_Tables_number 43
loop_
_symmetry_equiv_pos_site_id
_symmetry_equiv_pos_as_xyz
1 'x+1/4, -y+1/4, z+1/4'
2 '-x+1/4, y+1/4, z+1/4'
3 '-x, -y, z'
4 'x, y, z'
5 'x+1/4, -y+3/4, z+3/4'
6 '-x+1/4, y+3/4, z+3/4'
7 '-x, -y+1/2, z+1/2'
8 'x, y+1/2, z+1/2'
9 'x+3/4, -y+1/4, z+3/4'
10 '-x+3/4, y+1/4, z+3/4'
11 '-x+1/2, -y, z+1/2'
12 'x+1/2, y, z+1/2'
13 'x+3/4, -y+3/4, z+1/4'
14 '-x+3/4, y+3/4, z+1/4'
15 '-x+1/2, -y+1/2, z'
16 'x+1/2, y+1/2, z'
loop_
_atom_type_symbol
_atom_type_oxidation_number
P5+ 5
O2- -2
loop_
_atom_site_label
_atom_site_type_symbol
_atom_site_symmetry_multiplicity
_atom_site_Wyckoff_symbol
_atom_site_fract_x
_atom_site_fract_y
_atom_site_fract_z
_atom_site_B_iso_or_equiv
_atom_site_occupancy
_atom_site_attached_hydrogens
P1 P5+ 16 b 0.075 0.083 -.153 . 1. 0
O1 O2- 8 a 0 0 0 . 1. 0
O2 O2- 16 b 0.114 0.178 0.089 . 1. 0
O3 O2- 16 b 0.058 0.161 -.383 . 1. 0
#End of TTdata_77377-ICSD