
#(C) 2017 by FIZ Karlsruhe - Leibniz Institute for Information Infrastructure.  All rights reserved.
data_43038-ICSD
_database_code_ICSD 43038
_audit_creation_date 2000-07-15
_audit_update_record 2012-08-01
_chemical_name_systematic 'Chromium - delta'
_chemical_formula_structural Cr
_chemical_formula_sum Cr1
_exptl_crystal_density_diffrn 7.15
_publ_section_title

;
An electron diffraction study on the crystal structure of a new modification
of chromium
;
loop_
_citation_id
_citation_journal_full
_citation_year
_citation_journal_volume
_citation_page_first
_citation_page_last
_citation_journal_id_ASTM
primary 'Journal of the Physical Society of Japan' 1967 22 744 756 JUPSAU
loop_
_publ_author_name
'Kimoto, K.'
'Nishida, I.'
_cell_length_a 4.588(1)
_cell_length_b 4.588
_cell_length_c 4.588
_cell_angle_alpha 90.
_cell_angle_beta 90.
_cell_angle_gamma 90.
_cell_volume 96.58
_cell_formula_units_Z 8
_symmetry_space_group_name_H-M 'P m -3'
_symmetry_Int_Tables_number 200
loop_
_symmetry_equiv_pos_site_id
_symmetry_equiv_pos_as_xyz
1 '-z, x, y'
2 'z, x, -y'
3 'z, -x, y'
4 '-z, -x, -y'
5 'y, -z, x'
6 '-y, z, x'
7 'y, z, -x'
8 '-y, -z, -x'
9 'x, y, -z'
10 'x, -y, z'
11 '-x, y, z'
12 '-x, -y, -z'
13 'z, -x, -y'
14 '-z, -x, y'
15 '-z, x, -y'
16 'z, x, y'
17 '-y, z, -x'
18 'y, -z, -x'
19 '-y, -z, x'
20 'y, z, x'
21 '-x, -y, z'
22 '-x, y, -z'
23 'x, -y, -z'
24 'x, y, z'
loop_
_atom_type_symbol
_atom_type_oxidation_number
Cr0+ 0
loop_
_atom_site_label
_atom_site_type_symbol
_atom_site_symmetry_multiplicity
_atom_site_Wyckoff_symbol
_atom_site_fract_x
_atom_site_fract_y
_atom_site_fract_z
_atom_site_B_iso_or_equiv
_atom_site_occupancy
_atom_site_attached_hydrogens
Cr1 Cr0+ 1 a 0 0 0 . 1. 0
Cr2 Cr0+ 1 b 0.5 0.5 0.5 . 1. 0
Cr3 Cr0+ 24 l 0.248 0.04 0.251 . 0.25 0
#End of TTdata_43038-ICSD