
#(C) 2018 by FIZ Karlsruhe - Leibniz Institute for Information Infrastructure.  All rights reserved.
data_17012-ICSD
_database_code_ICSD 17012
_audit_creation_date 1980-01-01
_audit_update_record 2012-02-01
_chemical_name_systematic 'Hydrogen sulfide - II'
_chemical_formula_structural 'H2 S'
_chemical_formula_sum 'H2 S1'
_chemical_name_structure_type H2S
_exptl_crystal_density_diffrn 1.2
_cell_measurement_temperature 105.
_publ_section_title 'Structure and phase transition of solid hydrogen sulfide'
loop_
_citation_id
_citation_journal_full
_citation_year
_citation_journal_volume
_citation_page_first
_citation_page_last
_citation_journal_id_ASTM
primary 'Journal of the Physical Society of Japan' 1964 19 328 343 JUPSAU
loop_
_publ_author_name
'Harada, J.'
'Kitamura, N.'
_cell_length_a 6.75
_cell_length_b 6.75
_cell_length_c 4.14
_cell_angle_alpha 90.
_cell_angle_beta 90.
_cell_angle_gamma 90.
_cell_volume 188.63
_cell_formula_units_Z 4
_symmetry_space_group_name_H-M 'P 42'
_symmetry_Int_Tables_number 77
loop_
_symmetry_equiv_pos_site_id
_symmetry_equiv_pos_as_xyz
1 'y, -x, z+1/2'
2 '-y, x, z+1/2'
3 '-x, -y, z'
4 'x, y, z'
loop_
_atom_type_symbol
_atom_type_oxidation_number
S2- -2
H1+ 1
loop_
_atom_site_label
_atom_site_type_symbol
_atom_site_symmetry_multiplicity
_atom_site_Wyckoff_symbol
_atom_site_fract_x
_atom_site_fract_y
_atom_site_fract_z
_atom_site_B_iso_or_equiv
_atom_site_occupancy
_atom_site_attached_hydrogens
S1 S2- 4 d 0.19 0.28 0.25 . 1. 0
#End of TTdata_17012-ICSD