
#(C) 2018 by FIZ Karlsruhe - Leibniz Institute for Information Infrastructure.  All rights reserved.
data_62259-ICSD
_database_code_ICSD 62259
_audit_creation_date 1988-07-15
_chemical_name_systematic 'Tricesiumheptaphosphide - alpha'
_chemical_formula_structural 'Cs3 P7'
_chemical_formula_sum 'Cs3 P7'
_exptl_crystal_density_diffrn 2.99
_publ_section_title
'Tricaesiumheptaphosphid Cs3 P7: Darstellung, Struktur und Eigenschaften'
loop_
_citation_id
_citation_journal_full
_citation_year
_citation_journal_volume
_citation_page_first
_citation_page_last
_citation_journal_id_ASTM
primary 'Zeitschrift fuer Anorganische und Allgemeine Chemie (1950) (DE)' 1987
552 69 80 ZAACAB
loop_
_publ_author_name
'Meyer, T.'
'Hoenle, W.'
'von Schnering, H.G.'
_cell_length_a 9.046(1)
_cell_length_b 9.046(1)
_cell_length_c 16.714(4)
_cell_angle_alpha 90.
_cell_angle_beta 90.
_cell_angle_gamma 90.
_cell_volume 1367.71
_cell_formula_units_Z 4
_symmetry_space_group_name_H-M 'P 41'
_symmetry_Int_Tables_number 76
_refine_ls_R_factor_all 0.113
loop_
_symmetry_equiv_pos_site_id
_symmetry_equiv_pos_as_xyz
1 'y, -x, z+3/4'
2 '-y, x, z+1/4'
3 '-x, -y, z+1/2'
4 'x, y, z'
loop_
_atom_type_symbol
_atom_type_oxidation_number
Cs1+ 1
P1- -1
loop_
_atom_site_label
_atom_site_type_symbol
_atom_site_symmetry_multiplicity
_atom_site_Wyckoff_symbol
_atom_site_fract_x
_atom_site_fract_y
_atom_site_fract_z
_atom_site_B_iso_or_equiv
_atom_site_occupancy
_atom_site_attached_hydrogens
Cs1 Cs1+ 4 a -.2565(5) 0.3852(5) 0 . 1. 0
Cs2 Cs1+ 4 a 0.4169(5) 0.7330(5) 0.8359(3) . 1. 0
Cs3 Cs1+ 4 a 0.0260(5) 0.8404(6) 0.9914(4) . 1. 0
P1 P1- 4 a 0.790(2) 0.600(2) 0.8105(9) . 1. 0
P2 P1- 4 a 0.443(2) 0.095(2) 0.947(1) . 1. 0
P3 P1- 4 a 0.106(2) 0.473(2) 0.8928(9) . 1. 0
P4 P1- 4 a 0.357(2) 0.024(2) 0.061(1) . 1. 0
P5 P1- 4 a 0.629(2) 0.794(2) 0.0317(9) . 1. 0
P6 P1- 4 a 0.998(2) 0.341(2) 0.7049(8) . 1. 0
P7 P1- 4 a 0.011(2) 0.290(2) 0.840(1) . 1. 0
loop_
_atom_site_aniso_label
_atom_site_aniso_type_symbol
_atom_site_aniso_U_11
_atom_site_aniso_U_22
_atom_site_aniso_U_33
_atom_site_aniso_U_12
_atom_site_aniso_U_13
_atom_site_aniso_U_23
Cs1 Cs1+ 0.0703(55) 0.0595(33) 0.0426(22) -.0095(27) -.0009(23) -.0017(23)
Cs2 Cs1+ 0.0547(31) 0.0652(34) 0.0503(24) -.0102(27) 0.0055(23) -.0038(25)
Cs3 Cs1+ 0.0562(34) 0.1211(48) 0.0690(28) 0.0130(33) -.0076(28) -.0395(31)
P1 P1- 0.032(11) 0.046(12) 0.042(11) 0.0042(87) 0.0103(74) 0.0072(77)
P2 P1- 0.056(14) 0.070(15) 0.0396(95) 0.012(11) -.0090(91) 0.0017(87)
P3 P1- 0.059(13) 0.065(13) 0.0291(86) -0.005(11) -.0142(83) -.0051(92)
P4 P1- 0.049(14) 0.090(18) 0.063(13) -0.002(13) 0.0184(93) -0.003(11)
P5 P1- 0.070(15) 0.060(14) 0.0398(95) -0.003(11) -.0041(92) 0.020(9)
P6 P1- 0.061(15) 0.057(14) 0.0478(94) 0.009(11) 0.0023(96) -.0075(89)
P7 P1- 0.055(12) 0.047(12) 0.0474(84) 0.017(10) -0.013(10) -.0015(93)
#End of TTdata_62259-ICSD