
#(C) 2018 by FIZ Karlsruhe - Leibniz Institute for Information Infrastructure.  All rights reserved.
data_35181-ICSD
_database_code_ICSD 35181
_audit_creation_date 1982-12-31
_audit_update_record 2012-08-01
_chemical_name_systematic 'Niobium(IV) oxide - beta'
_chemical_formula_structural 'Nb O2'
_chemical_formula_sum 'Nb1 O2'
_exptl_crystal_density_diffrn 5.9
_publ_section_title 'Zur Darstellung und Kristallstruktur von beta-Nb O2'
loop_
_citation_id
_citation_journal_full
_citation_year
_citation_journal_volume
_citation_page_first
_citation_page_last
_citation_journal_id_ASTM
primary

;
Zeitschrift fuer Naturforschung, Teil B. Anorganische Chemie, Organische
Chemie (33,1978-41,1986)
; 1982 37 1361 1368 ZNBAD2
loop_
_publ_author_name
'Schweizer, H.J.'
'Gruehn, R.'
_cell_length_a 9.693(3)
_cell_length_b 9.693(3)
_cell_length_c 5.985(1)
_cell_angle_alpha 90.
_cell_angle_beta 90.
_cell_angle_gamma 90.
_cell_volume 562.32
_cell_formula_units_Z 16
_symmetry_space_group_name_H-M 'I 41'
_symmetry_Int_Tables_number 80
_refine_ls_R_factor_all 0.103
loop_
_symmetry_equiv_pos_site_id
_symmetry_equiv_pos_as_xyz
1 'y, -x+1/2, z+1/4'
2 '-y, x+1/2, z+1/4'
3 '-x, -y, z'
4 'x, y, z'
5 'y+1/2, -x, z+3/4'
6 '-y+1/2, x, z+3/4'
7 '-x+1/2, -y+1/2, z+1/2'
8 'x+1/2, y+1/2, z+1/2'
loop_
_atom_type_symbol
_atom_type_oxidation_number
Nb4+ 4
O2- -2
loop_
_atom_site_label
_atom_site_type_symbol
_atom_site_symmetry_multiplicity
_atom_site_Wyckoff_symbol
_atom_site_fract_x
_atom_site_fract_y
_atom_site_fract_z
_atom_site_B_iso_or_equiv
_atom_site_occupancy
_atom_site_attached_hydrogens
Nb1 Nb4+ 8 b 0.2621(2) 0.5076(3) 0.0299(4) . 1. 0
Nb2 Nb4+ 8 b 0.2455(2) 0.4909(2) 0.4804(4) . 1. 0
O1 O2- 8 b 0.3974(10) 0.1497(12) 0.0077(25) 0.0010(15) 1. 0
O2 O2- 8 b 0.1102(26) 0.3642(28) -.0089(58) 0.0254(47) 1. 0
O3 O2- 8 b 0.6086(11) 0.3609(13) 0.5064(29) 0.0027(17) 1. 0
O4 O2- 8 b 0.6500(34) 0.1038(30) 0.2484(70) 0.346(7) 1. 0
loop_
_atom_site_aniso_label
_atom_site_aniso_type_symbol
_atom_site_aniso_U_11
_atom_site_aniso_U_22
_atom_site_aniso_U_33
_atom_site_aniso_U_12
_atom_site_aniso_U_13
_atom_site_aniso_U_23
Nb1 Nb4+ 0.0100(6) 0.0058(8) 0.0042(6) 0.0056(6) -.0056(6) -.0045(6)
Nb2 Nb4+ 0.0028(5) 0.0019(4) 0.0036(4) -.0016 -.0016 -.0016
#End of TTdata_35181-ICSD