
#(C) 2017 by FIZ Karlsruhe - Leibniz Institute for Information Infrastructure.  All rights reserved.
data_90150-ICSD
_database_code_ICSD 90150
_audit_creation_date 2002-04-01
_chemical_name_systematic 'Samarium carbon (3/70)'
_chemical_formula_structural 'Sm3 C70'
_chemical_formula_sum 'C70 Sm3'
_exptl_crystal_density_diffrn 2.63
_publ_section_title

;
Synthesis, structure, and transport properties of novel fullerides A3 C70 (A =
Ba and Sm)
;
loop_
_citation_id
_citation_journal_full
_citation_year
_citation_journal_volume
_citation_page_first
_citation_page_last
_citation_journal_id_ASTM
primary 'Journal of the American Chemical Society' 2000 122 5729 5732 JACSAT
loop_
_publ_author_name
'Chen, X.-H.'
'Chi, D.H.'
'Sun, Z.'
'Takenobu, T.'
'Liu, Z.S.'
'Iwasa, Y.'
_cell_length_a 14.88(1)
_cell_length_b 10.09(1)
_cell_length_c 10.93(1)
_cell_angle_alpha 90.
_cell_angle_beta 96.16(2)
_cell_angle_gamma 90.
_cell_volume 1631.55
_cell_formula_units_Z 2
_symmetry_space_group_name_H-M 'P 1 2 1'
_symmetry_Int_Tables_number 3
_refine_ls_R_factor_all 0.069
loop_
_symmetry_equiv_pos_site_id
_symmetry_equiv_pos_as_xyz
1 '-x, y, -z'
2 'x, y, z'
loop_
_atom_type_symbol
_atom_type_oxidation_number
C0+ 0
Sm0+ 0
loop_
_atom_site_label
_atom_site_type_symbol
_atom_site_symmetry_multiplicity
_atom_site_Wyckoff_symbol
_atom_site_fract_x
_atom_site_fract_y
_atom_site_fract_z
_atom_site_B_iso_or_equiv
_atom_site_occupancy
_atom_site_attached_hydrogens
C1 C0+ 1 a 0 0 0 0.16 70. 0
C2 C0+ 1 d 0.5 0.5 0.5 0.16 70. 0
Sm1 Sm0+ 2 e 0.223(3) 0.976(1) 0.539(3) 0.23 1. 0
Sm2 Sm0+ 2 e 0.258(3) 0.525(4) 0.002(4) 0.23 1. 0
Sm3 Sm0+ 2 e 0.596(4) 0.011(5) 0.260(3) 0.23 0.5 0
Sm4 Sm0+ 2 e 0.092(3) 0.427(4) 0.399(3) 0.23 0.5 0
#End of TTdata_90150-ICSD