
#(C) 2017 by FIZ Karlsruhe - Leibniz Institute for Information Infrastructure.  All rights reserved.
data_89237-ICSD
_database_code_ICSD 89237
_audit_creation_date 2001-07-16
_chemical_name_systematic Barium
_chemical_formula_structural Ba
_chemical_formula_sum Ba1
_exptl_crystal_density_diffrn 2.8
_publ_section_title

;
Structure determination by electron diffraction and HREM of the incommensurate
modulated phase Bax Cu O2 (0.67 < x < 0.70)
;
loop_
_citation_id
_citation_journal_full
_citation_year
_citation_journal_volume
_citation_page_first
_citation_page_last
_citation_journal_id_ASTM
primary 'Physica C, Superconductivity' 1999 328 89 103 PHYCE6
loop_
_publ_author_name
'Migliori, A.'
'Gemmi, M.'
'Calestani, G.'
'Belletti, D.'
'Matacotta, F.C.'
'Dionigi, C.'
'Nozar, P.'
_cell_length_a 5.70(5)
_cell_length_b 7.30(3)
_cell_length_c 3.91(3)
_cell_angle_alpha 90.
_cell_angle_beta 90.
_cell_angle_gamma 90.
_cell_volume 162.7
_cell_formula_units_Z 2
_symmetry_space_group_name_H-M 'A m m m'
_symmetry_Int_Tables_number 65
loop_
_symmetry_equiv_pos_site_id
_symmetry_equiv_pos_as_xyz
1 'x, -y, z'
2 'x, y, -z'
3 '-x, y, z'
4 '-x, -y, -z'
5 '-x, y, -z'
6 '-x, -y, z'
7 'x, -y, -z'
8 'x, y, z'
9 'x, -y+1/2, z+1/2'
10 'x, y+1/2, -z+1/2'
11 '-x, y+1/2, z+1/2'
12 '-x, -y+1/2, -z+1/2'
13 '-x, y+1/2, -z+1/2'
14 '-x, -y+1/2, z+1/2'
15 'x, -y+1/2, -z+1/2'
16 'x, y+1/2, z+1/2'
loop_
_atom_type_symbol
_atom_type_oxidation_number
Ba0+ 0
loop_
_atom_site_label
_atom_site_type_symbol
_atom_site_symmetry_multiplicity
_atom_site_Wyckoff_symbol
_atom_site_fract_x
_atom_site_fract_y
_atom_site_fract_z
_atom_site_B_iso_or_equiv
_atom_site_occupancy
_atom_site_attached_hydrogens
Ba1 Ba0+ 2 a 0 0 0 . 1. 0
#End of TTdata_89237-ICSD