
#(C) 2017 by FIZ Karlsruhe - Leibniz Institute for Information Infrastructure.  All rights reserved.
data_4111-ICSD
_database_code_ICSD 4111
_audit_creation_date 1980-01-01
_audit_update_record 2012-02-01
_chemical_name_systematic 'Molybdenum oxide (17/47)'
_chemical_formula_structural 'Mo17 O47'
_chemical_formula_sum 'Mo17 O47'
_chemical_name_structure_type Mo17O47
_exptl_crystal_density_diffrn 4.7
_publ_section_title 'Structural effects of vanadium substitution in Mo17 O47'
loop_
_citation_id
_citation_journal_full
_citation_year
_citation_journal_volume
_citation_page_first
_citation_page_last
_citation_journal_id_ASTM
primary 'Acta Chemica Scandinavica, Series A: (28,1974-)' 1975 29 404 408 ACAPCT
loop_
_publ_author_name
'Yamazoe, N.'
'Ekstroem, T.'
'Kihlborg, L.'
_cell_length_a 21.5310(40)
_cell_length_b 19.534(4)
_cell_length_c 4.001(1)
_cell_angle_alpha 90.
_cell_angle_beta 90.
_cell_angle_gamma 90.
_cell_volume 1682.77
_cell_formula_units_Z 2
_symmetry_space_group_name_H-M 'P b a 2'
_symmetry_Int_Tables_number 32
_refine_ls_R_factor_all 0.064
loop_
_symmetry_equiv_pos_site_id
_symmetry_equiv_pos_as_xyz
1 'x+1/2, -y+1/2, z'
2 '-x+1/2, y+1/2, z'
3 '-x, -y, z'
4 'x, y, z'
loop_
_atom_type_symbol
_atom_type_oxidation_number
Mo6+ 6
Mo5+ 5
Mo6+ 6
Mo5+ 5
Mo6+ 6
Mo5+ 5
O2- -2
loop_
_atom_site_label
_atom_site_type_symbol
_atom_site_symmetry_multiplicity
_atom_site_Wyckoff_symbol
_atom_site_fract_x
_atom_site_fract_y
_atom_site_fract_z
_atom_site_B_iso_or_equiv
_atom_site_occupancy
_atom_site_attached_hydrogens
Mo1 Mo6+ 2 a 0 0 0.579 0.22 1. 0
Mo2 Mo6+ 4 c 0.02427(16) 0.26120(23) 0.5789(32) 0.12 1. 0
Mo3 Mo6+ 4 c 0.12948(19) 0.11753(21) 0.4006(29) 0.26 1. 0
Mo4 Mo5+ 4 c 0.13558(20) 0.40039(27) 0.4117(32) 0.36 1. 0
Mo5 Mo6+ 4 c 0.24223(18) 0.25749(23) 0.5626(36) 0.43 1. 0
Mo6 Mo5+ 4 c 0.28823(18) 0.06502(23) 0.5773(34) 0.3 1. 0
Mo7 Mo6+ 4 c 0.38259(20) 0.19341(21) 0.4062(30) 0.09 1. 0
Mo8 Mo5+ 4 c 0.38568(25) 0.36643(26) 0.4096(29) 1.31 1. 0
Mo9 Mo5+ 4 c 0.46517(20) 0.05591(25) 0.5619(33) 0.39 1. 0
O1 O2- 4 c 0.0227(16) 0.2640(21) 0.026(14) 2. 1. 0
O2 O2- 2 a 0 0 0.020(19) 1.9 1. 0
O3 O2- 4 c 0.1286(18) 0.1219(19) 0.994(12) 1.9 1. 0
O4 O2- 4 c 0.1331(14) 0.4025(18) 0.998(8) 0.7 1. 0
O5 O2- 4 c 0.2459(16) 0.2571(18) -.01(1) 1.2 1. 0
O6 O2- 4 c 0.2867(14) 0.0685(17) -.002(9) 0.8 1. 0
O7 O2- 4 c 0.3829(17) 0.1957(19) 0.993(10) 1.4 1. 0
O8 O2- 4 c 0.3879(13) 0.3584(15) 0.992(9) 0.2 1. 0
O9 O2- 4 c 0.4635(14) 0.0565(18) 0.992(10) 0.8 1. 0
O10 O2- 4 c 0.0746(15) 0.0447(16) 0.491(10) 0.6 1. 0
O11 O2- 4 c 0.0588(14) 0.1782(15) 0.503(9) 0.4 1. 0
O12 O2- 4 c 0.0875(13) 0.3215(16) 0.543(13) 0.8 1. 0
O13 O2- 4 c 0.0575(18) 0.4577(21) 0.494(13) 2.2 1. 0
O14 O2- 4 c 0.2037(16) 0.0672(19) 0.496(11) 1.5 1. 0
O15 O2- 4 c 0.1773(16) 0.1986(19) 0.486(11) 1.5 1. 0
O16 O2- 4 c 0.2062(14) 0.3396(16) 0.479(9) 0.5 1. 0
O17 O2- 4 c 0.1869(19) 0.4758(22) 0.55(2) 2.9 1. 0
O18 O2- 4 c 0.2950(12) 0.1692(15) 0.501(8) 0 1. 0
O19 O2- 4 c 0.3322(13) 0.2808(17) 0.481 0.4 1. 0
O20 O2- 4 c 0.3291(19) 0.4241(23) 0.465(14) 2.7 1. 0
O21 O2- 4 c 0.3798(17) 0.0940(19) 0.518(11) 1.5 1. 0
O22 O2- 4 c 0.4683(14) 0.1558(17) 0.499(11) 0.9 1. 0
O23 O2- 4 c 0.4381(15) 0.2719(18) 0.480(11) 1.2 1. 0
O24 O2- 4 c 0.4577(19) 0.4116(23) 0.496(13) 2.6 1. 0
#End of TTdata_4111-ICSD