
#(C) 2017 by FIZ Karlsruhe - Leibniz Institute for Information Infrastructure.  All rights reserved.
data_71579-ICSD
_database_code_ICSD 71579
_audit_creation_date 1993-01-06
_chemical_name_systematic 'Platinum(IV) fluoride'
_chemical_formula_structural 'Pt F4'
_chemical_formula_sum 'F4 Pt1'
_chemical_name_structure_type PdF4
_exptl_crystal_density_diffrn 7.08
_publ_section_title 'Single-crystal investigations on PtF4 and PtF5'
loop_
_citation_id
_citation_journal_full
_citation_year
_citation_journal_volume
_citation_page_first
_citation_page_last
_citation_journal_id_ASTM
primary 'European Journal of Solid State Inorganic Chemistry' 1992 29 625 633
EJSCE5
loop_
_publ_author_name
'Mueller, B.G.'
'Serafin, M.'
_cell_length_a 9.590(6)
_cell_length_b 9.284(6)
_cell_length_c 5.712(3)
_cell_angle_alpha 90.
_cell_angle_beta 90.
_cell_angle_gamma 90.
_cell_volume 508.56
_cell_formula_units_Z 8
_symmetry_space_group_name_H-M 'F d d 2'
_symmetry_Int_Tables_number 43
_refine_ls_R_factor_all 0.042
loop_
_symmetry_equiv_pos_site_id
_symmetry_equiv_pos_as_xyz
1 'x+1/4, -y+1/4, z+1/4'
2 '-x+1/4, y+1/4, z+1/4'
3 '-x, -y, z'
4 'x, y, z'
5 'x+1/4, -y+3/4, z+3/4'
6 '-x+1/4, y+3/4, z+3/4'
7 '-x, -y+1/2, z+1/2'
8 'x, y+1/2, z+1/2'
9 'x+3/4, -y+1/4, z+3/4'
10 '-x+3/4, y+1/4, z+3/4'
11 '-x+1/2, -y, z+1/2'
12 'x+1/2, y, z+1/2'
13 'x+3/4, -y+3/4, z+1/4'
14 '-x+3/4, y+3/4, z+1/4'
15 '-x+1/2, -y+1/2, z'
16 'x+1/2, y+1/2, z'
loop_
_atom_type_symbol
_atom_type_oxidation_number
Pt4+ 4
F1- -1
loop_
_atom_site_label
_atom_site_type_symbol
_atom_site_symmetry_multiplicity
_atom_site_Wyckoff_symbol
_atom_site_fract_x
_atom_site_fract_y
_atom_site_fract_z
_atom_site_B_iso_or_equiv
_atom_site_occupancy
_atom_site_attached_hydrogens
Pt1 Pt4+ 8 a 0 0 0 . 1. 0
F1 F1- 16 b 0.1591(12) 0.1366(14) 0.9830(28) . 1. 0
F2 F1- 16 b 0.1630(12) 0.1391(14) 0.4680(21) . 1. 0
loop_
_atom_site_aniso_label
_atom_site_aniso_type_symbol
_atom_site_aniso_U_11
_atom_site_aniso_U_22
_atom_site_aniso_U_33
_atom_site_aniso_U_12
_atom_site_aniso_U_13
_atom_site_aniso_U_23
Pt1 Pt4+ 0.0106(3) 0.0090(3) 0.0090(3) 0.0071(6) 0 0
F1 F1- 0.0189(50) 0.0255(58) 0.0074(55) -.0026(45) -.0045(49) -.0083(55)
F2 F1- 0.0183(50) 0.0208(56) 0.0023(58) -.0023(44) 0.0025(38) 0.0044(43)
#End of TTdata_71579-ICSD