
#(C) 2017 by FIZ Karlsruhe - Leibniz Institute for Information Infrastructure.  All rights reserved.
data_38125-ICSD
_database_code_ICSD 38125
_audit_creation_date 1980-01-01
_audit_update_record 2000-07-15
_chemical_name_systematic 'Chromium(VI) oxide'
_chemical_formula_structural 'Cr O3'
_chemical_formula_sum 'Cr1 O3'
_chemical_name_structure_type CrO3
_exptl_crystal_density_diffrn 2.82
_publ_section_title 'Bemerkungen zur Struktur von Chrom(VI)-Oxid'
loop_
_citation_id
_citation_journal_full
_citation_year
_citation_journal_volume
_citation_page_first
_citation_page_last
_citation_journal_id_ASTM
primary 'Chemicke Zvesti' 1960 14 165 176 CHZVAN
loop_
_publ_author_name
'Hanic, F.'
'Stempelova, D.'
_cell_length_a 4.789
_cell_length_b 8.557
_cell_length_c 5.743
_cell_angle_alpha 90.
_cell_angle_beta 90.
_cell_angle_gamma 90.
_cell_volume 235.35
_cell_formula_units_Z 4
_symmetry_space_group_name_H-M 'C 2 c m'
_symmetry_Int_Tables_number 40
loop_
_symmetry_equiv_pos_site_id
_symmetry_equiv_pos_as_xyz
1 'x, -y, z+1/2'
2 'x, y, -z+1/2'
3 'x, -y, -z'
4 'x, y, z'
5 'x+1/2, -y+1/2, z+1/2'
6 'x+1/2, y+1/2, -z+1/2'
7 'x+1/2, -y+1/2, -z'
8 'x+1/2, y+1/2, z'
loop_
_atom_type_symbol
_atom_type_oxidation_number
Cr6+ 6
O2- -2
loop_
_atom_site_label
_atom_site_type_symbol
_atom_site_symmetry_multiplicity
_atom_site_Wyckoff_symbol
_atom_site_fract_x
_atom_site_fract_y
_atom_site_fract_z
_atom_site_B_iso_or_equiv
_atom_site_occupancy
_atom_site_attached_hydrogens
Cr1 Cr6+ 4 b 0.5 0.4 0.25 . 1. 0
O1 O2- 4 a 0.883 0 0 . 1. 0
O2 O2- 4 b 0.8 0.342 0.25 . 1. 0
O3 O2- 4 b 0.433 0.225 0.25 . 1. 0
#End of TTdata_38125-ICSD