
#(C) 2018 by FIZ Karlsruhe - Leibniz Institute for Information Infrastructure.  All rights reserved.
data_30524-ICSD
_database_code_ICSD 30524
_audit_creation_date 1980-01-01
_audit_update_record 2003-04-01
_chemical_name_systematic 'Potassium manganese iron fluoride (0.54/0.54/0.46/3)'
_chemical_formula_structural 'K0.54 (Mn.54 Fe.46) F3'
_chemical_formula_sum 'F3 Fe0.46 K0.54 Mn0.54'
_chemical_name_structure_type Fe20K10.5F60
_exptl_crystal_density_diffrn 3.4
_publ_section_title
'The crystal structure of K0.54 (Mn, Fe) F3 at room temperature'
loop_
_citation_id
_citation_journal_full
_citation_year
_citation_journal_volume
_citation_page_first
_citation_page_last
_citation_journal_id_ASTM
primary

;
Acta Crystallographica, Section B: Structural Crystallography and Crystal
Chemistry
; 1979 35 46 49 ACBCAR
loop_
_publ_author_name
'Banks, E.'
'Nakajima, S.'
'Williams, G.J.B.'
_cell_length_a 12.765(1)
_cell_length_b 12.765(1)
_cell_length_c 8.002(1)
_cell_angle_alpha 90.
_cell_angle_beta 90.
_cell_angle_gamma 90.
_cell_volume 1303.89
_cell_formula_units_Z 20
_symmetry_space_group_name_H-M 'P 42 b c'
_symmetry_Int_Tables_number 106
_refine_ls_R_factor_all 0.065
loop_
_symmetry_equiv_pos_site_id
_symmetry_equiv_pos_as_xyz
1 '-y+1/2, -x+1/2, z+1/2'
2 'y, -x, z+1/2'
3 '-x+1/2, y+1/2, z'
4 '-x, -y, z'
5 'y+1/2, x+1/2, z+1/2'
6 '-y, x, z+1/2'
7 'x+1/2, -y+1/2, z'
8 'x, y, z'
loop_
_atom_type_symbol
_atom_type_oxidation_number
K1+ 1
Mn2+ 2
Fe3+ 3
F1- -1
loop_
_atom_site_label
_atom_site_type_symbol
_atom_site_symmetry_multiplicity
_atom_site_Wyckoff_symbol
_atom_site_fract_x
_atom_site_fract_y
_atom_site_fract_z
_atom_site_B_iso_or_equiv
_atom_site_occupancy
_atom_site_attached_hydrogens
K1 K1+ 4 a 0 0 0.2503(8) . 0.7 0
K2 K1+ 8 c 0.1695(2) 0.6728(2) 0.2501(7) . 1. 0
Mn1 Mn2+ 8 c 0.0758 0.2144 -.0004(4) . 0.54 0
Mn2 Mn2+ 8 c 0.2901 0.4244 0.0000(4) . 0.54 0
Mn3 Mn2+ 4 b 0 0.5 0 . 0.54 0
Fe1 Fe3+ 8 c 0.0758 0.2144 -.0004(4) . 0.46 0
Fe2 Fe3+ 8 c 0.2901 0.4244 0.0000(4) . 0.46 0
Fe3 Fe3+ 4 b 0 0.5 0 . 0.46 0
F1 F1- 4 b 0 0.5 0.2509(15) . 1. 0
F2 F1- 8 c 0.0783(4) 0.2099(5) 0.2620(13) . 1. 0
F3 F1- 8 c 0.9221(5) 0.7949(4) 0.7416(13) . 1. 0
F4 F1- 8 c 0.9827(2) 0.3462(2) 0.0074(12) . 1. 0
F5 F1- 8 c 0.3430(2) 0.9962(2) 0.0066(14) . 1. 0
F6 F1- 8 c 0.1483(2) 0.0650(2) 0.0059(13) . 1. 0
F7 F1- 8 c 0.0704(2) 0.8650(1) 0.0075(12) . 1. 0
F8 F1- 8 c 0.2732(1) 0.7842(1) -.0007(10) . 1. 0
loop_
_atom_site_aniso_label
_atom_site_aniso_type_symbol
_atom_site_aniso_beta_11
_atom_site_aniso_beta_22
_atom_site_aniso_beta_33
_atom_site_aniso_beta_12
_atom_site_aniso_beta_13
_atom_site_aniso_beta_23
K1 K1+ 0.0020(2) 0.0045(1) 0.0045(1) -.0001(2) 0.0005 0.0005
K2 K1+ 0.0078(2) 0.0061(2) 0.0065(1) -.0041 -.0009(3) 0.0009(2)
Mn1 Mn2+ 0.0012 0.0013 0.0034(1) 0.0001 0.0006(1) -.0002(1)
Mn2 Mn2+ 0.0007 0.0009 0.0022(1) 0 0.0001(1) -.0004(1)
Mn3 Mn2+ 0.0009 0.0009 0.0026(1) 0.0001 0 0
Fe1 Fe3+ 0.0012 0.0013 0.0034(1) 0.0001 0.0006(1) -.0002(1)
Fe2 Fe3+ 0.0007 0.0009 0.0022(1) 0 0.0001(1) -.0004(1)
Fe3 Fe3+ 0.0009 0.0009 0.0026(1) 0.0001 0 0
F1 F1- 0.0095(10) 0.007(1) 0.0079(6) 0.0001(2) 0 0
F2 F1- 0.0103(4) 0.0064(4) 0.0052(11) -.0030(3) -.0002(5) 0.0017(5)
F3 F1- 0.0086(5) 0.0036(3) 0.0018(6) -.0019(3) -.0006(7) -.0008(5)
F4 F1- 0.0028(1) 0.0017(1) 0.0153(6) 0.0008(1) 0.0021(6) 0.0008(6)
F5 F1- 0.0018(1) 0.0038(1) 0.0221(8) -.0007(1) 0.0004(7) -.0017(8)
F6 F1- 0.0037(1) 0.0019(1) 0.0161(6) 0.0010(1) 0.0015(7) 0.0022(6)
F7 F1- 0.0019(1) 0.0030(1) 0.0142(5) -.0010(1) 0.0005(6) -.0010(7)
F8 F1- 0.0021(1) 0.0022(1) 0.0113(3) 0.0006(1) 0.0026(5) 0.0008(6)
#End of TTdata_30524-ICSD