
#(C) 2017 by FIZ Karlsruhe - Leibniz Institute for Information Infrastructure.  All rights reserved.
data_67442-ICSD
_database_code_ICSD 67442
_audit_creation_date 1991-07-10
_audit_update_record 2000-07-15
_chemical_name_systematic 'Tin sulfide'
_chemical_formula_structural 'Sn S'
_chemical_formula_sum 'S1 Sn1'
_chemical_name_structure_type LaS
_exptl_crystal_density_diffrn 2.61
_publ_section_title

;
The incommensurate misfit layer structure of (Sn S)1.17 Nb S2, 'Sn Nb S3'. I.
A study by means of x-ray diffraction
;
loop_
_citation_id
_citation_journal_full
_citation_year
_citation_journal_volume
_citation_page_first
_citation_page_last
_citation_journal_id_ASTM
primary 'Acta Crystallographica. Section A: Foundations of Crystallography' 1989
45 285 291 ACACEQ
loop_
_publ_author_name
'Meetsma, A.'
'Wiegers, G.A.'
'Haange, R.J.'
'de Boer, J.L.'
_cell_length_a 5.673(1)
_cell_length_b 5.750(1)
_cell_length_c 11.760(1)
_cell_angle_alpha 90.
_cell_angle_beta 90.
_cell_angle_gamma 90.
_cell_volume 383.61
_cell_formula_units_Z 4
_symmetry_space_group_name_H-M 'C 2 m b'
_symmetry_Int_Tables_number 39
_refine_ls_R_factor_all 0.035
loop_
_symmetry_equiv_pos_site_id
_symmetry_equiv_pos_as_xyz
1 'x, -y+1/2, z'
2 'x, y+1/2, -z'
3 'x, -y, -z'
4 'x, y, z'
5 'x+1/2, -y, z'
6 'x+1/2, y, -z'
7 'x+1/2, -y+1/2, -z'
8 'x+1/2, y+1/2, z'
loop_
_atom_type_symbol
_atom_type_oxidation_number
Sn2+ 2
S2- -2
loop_
_atom_site_label
_atom_site_type_symbol
_atom_site_symmetry_multiplicity
_atom_site_Wyckoff_symbol
_atom_site_fract_x
_atom_site_fract_y
_atom_site_fract_z
_atom_site_B_iso_or_equiv
_atom_site_occupancy
_atom_site_attached_hydrogens
Sn1 Sn2+ 4 c 0 0.25 0.1335(2) . 1. 0
S1 S2- 4 c 0.476(2) 0.25 0.0954(7) . 1. 0
loop_
_atom_site_aniso_label
_atom_site_aniso_type_symbol
_atom_site_aniso_U_11
_atom_site_aniso_U_22
_atom_site_aniso_U_33
_atom_site_aniso_U_12
_atom_site_aniso_U_13
_atom_site_aniso_U_23
Sn1 Sn2+ 0.040(1) 0.0362(9) 0.0245(7) 0 0.000(2) 0
S1 S2- 0.022(5) 0.040(4) 0.029(3) 0 -.006(4) 0
#End of TTdata_67442-ICSD