
#(C) 2017 by FIZ Karlsruhe - Leibniz Institute for Information Infrastructure.  All rights reserved.
data_28419-ICSD
_database_code_ICSD 28419
_audit_creation_date 1980-01-01
_audit_update_record 1998-06-26
_chemical_name_systematic Carbon
_chemical_formula_structural C
_chemical_formula_sum C1
_chemical_name_mineral 'Graphite, nitrated'
_exptl_crystal_density_diffrn 1.58
_publ_section_title 'Order-disorder transformations in graphite nitrates'
loop_
_citation_id
_citation_journal_full
_citation_year
_citation_journal_volume
_citation_page_first
_citation_page_last
_citation_journal_id_ASTM
primary

;
Proceedings of the Royal Society of London, Series A: Mathematical and
Physical Sciences (76,1906-)
; 1966 291 324 339 PRLAAZ
loop_
_publ_author_name
'Nixon, D.E.'
'Parry, G.S.'
'Ubbelohde, A.R.'
_cell_length_a 2.46
_cell_length_b 4.26
_cell_length_c 28.95999
_cell_angle_alpha 90.
_cell_angle_beta 90.
_cell_angle_gamma 90.
_cell_volume 303.49
_cell_formula_units_Z 24
_symmetry_space_group_name_H-M 'C m c 21'
_symmetry_Int_Tables_number 36
loop_
_symmetry_equiv_pos_site_id
_symmetry_equiv_pos_as_xyz
1 'x, -y, z+1/2'
2 '-x, -y, z+1/2'
3 '-x, y, z'
4 'x, y, z'
5 'x+1/2, -y+1/2, z+1/2'
6 '-x+1/2, -y+1/2, z+1/2'
7 '-x+1/2, y+1/2, z'
8 'x+1/2, y+1/2, z'
loop_
_atom_type_symbol
_atom_type_oxidation_number
C0+ 0
loop_
_atom_site_label
_atom_site_type_symbol
_atom_site_symmetry_multiplicity
_atom_site_Wyckoff_symbol
_atom_site_fract_x
_atom_site_fract_y
_atom_site_fract_z
_atom_site_B_iso_or_equiv
_atom_site_occupancy
_atom_site_attached_hydrogens
C1 C0+ 4 a 0 0.1667 0 . 1. 0
C2 C0+ 4 a 0 0.1667 0.269 . 1. 0
C3 C0+ 4 a 0 0.1667 0.384 . 1. 0
C4 C0+ 4 a 0 0.1667 0.5 . 1. 0
C5 C0+ 4 a 0 0.1667 0.769 . 1. 0
C6 C0+ 4 a 0 0.5 0.384 . 1. 0
#End of TTdata_28419-ICSD