
#(C) 2017 by FIZ Karlsruhe - Leibniz Institute for Information Infrastructure.  All rights reserved.
data_100015-ICSD
_database_code_ICSD 100015
_audit_creation_date 1980-01-01
_audit_update_record 2014-08-01
_chemical_name_systematic 'Yttrium borate'
_chemical_formula_structural 'Y (B O3)'
_chemical_formula_sum 'B1 O3 Y1'
_chemical_name_structure_type YBO3(mP30)
_exptl_crystal_density_diffrn 4.5
_publ_section_title

;
Crystal structure of Y Si O2 N and a reappraisal of the "vaterite" type, Y B
O3
;
loop_
_citation_id
_citation_journal_full
_citation_year
_citation_journal_volume
_citation_page_first
_citation_page_last
_citation_journal_id_ASTM
primary 'Materials Research Bulletin' 1977 12 251 260 MRBUAC
loop_
_publ_author_name
'Morgan, P.E.D.'
'Carroll, P.J.'
'Lange, F.F.'
_cell_length_a 6.544
_cell_length_b 6.544
_cell_length_c 8.81
_cell_angle_alpha 90.
_cell_angle_beta 90.
_cell_angle_gamma 120.
_cell_volume 326.73
_cell_formula_units_Z 6
_symmetry_space_group_name_H-M 'P 1 1 m'
_symmetry_Int_Tables_number 6
_refine_ls_R_factor_all 0.12
loop_
_symmetry_equiv_pos_site_id
_symmetry_equiv_pos_as_xyz
1 'x, y, -z'
2 'x, y, z'
loop_
_atom_type_symbol
_atom_type_oxidation_number
Y3+ 3
B3+ 3
O2- -2
loop_
_atom_site_label
_atom_site_type_symbol
_atom_site_symmetry_multiplicity
_atom_site_Wyckoff_symbol
_atom_site_fract_x
_atom_site_fract_y
_atom_site_fract_z
_atom_site_B_iso_or_equiv
_atom_site_occupancy
_atom_site_attached_hydrogens
Y1 Y3+ 2 c 0 0 0.25 . 1. 0
Y2 Y3+ 2 c 0.3333 0.6667 0.25 . 1. 0
Y3 Y3+ 2 c 0.6667 0.3333 0.25 . 1. 0
B1 B3+ 1 a 0.6667 0.904 0 . 1. 0
B2 B3+ 1 a 0.429 0.429 0 . 1. 0
B3 B3+ 1 a 0.904 0.6667 0 . 1. 0
B4 B3+ 1 b 0.763 0.6667 0.5 . 1. 0
B5 B3+ 1 b 0 0.429 0.5 . 1. 0
B6 B3+ 1 b 0.238 0.904 0.5 . 1. 0
O1 O2- 2 c 0.6667 0 0.155 . 1. 0
O2 O2- 2 c 0.3333 0.3333 0.155 . 1. 0
O3 O2- 2 c 0 0.6667 0.155 . 1. 0
O4 O2- 2 c 0.6667 0.6667 0.655 . 1. 0
O5 O2- 2 c 0 0.3333 0.655 . 1. 0
O6 O2- 2 c 0.3333 0 0.655 . 1. 0
O7 O2- 1 a 0.6667 0.448 0 . 1. 0
O8 O2- 1 a 0.885 0.885 0 . 1. 0
O9 O2- 1 a 0.448 0.6667 0 . 1. 0
O10 O2- 1 b 0.219 0.6667 0.5 . 1. 0
O11 O2- 1 b 0 0.885 0.5 . 1. 0
O12 O2- 1 b 0.782 0.448 0.5 . 1. 0
#End of TTdata_100015-ICSD