
#(C) 2017 by FIZ Karlsruhe - Leibniz Institute for Information Infrastructure.  All rights reserved.
data_52913-ICSD
_database_code_ICSD 52913
_audit_creation_date 2003-04-01
_chemical_name_systematic 'Californium - HP'
_chemical_formula_structural Cf
_chemical_formula_sum Cf1
_exptl_crystal_density_diffrn 24.51
_publ_section_title
'Concerning the structure of a high-pressure phase in californium metal'
loop_
_citation_id
_citation_journal_full
_citation_year
_citation_journal_volume
_citation_page_first
_citation_page_last
_citation_journal_id_ASTM
primary 'Journal of the Less-Common Metals' 1986 120 345 349 JCOMAH
loop_
_publ_author_name
'Roof, R.B.jr.'
_cell_length_a 3.307
_cell_length_b 7.412
_cell_length_c 2.793
_cell_angle_alpha 89.06
_cell_angle_beta 85.15
_cell_angle_gamma 85.7
_cell_volume 68.02
_cell_formula_units_Z 4
_symmetry_space_group_name_H-M 'P -1'
_symmetry_Int_Tables_number 2
loop_
_symmetry_equiv_pos_site_id
_symmetry_equiv_pos_as_xyz
1 '-x, -y, -z'
2 'x, y, z'
loop_
_atom_type_symbol
_atom_type_oxidation_number
Cf0+ 0
loop_
_atom_site_label
_atom_site_type_symbol
_atom_site_symmetry_multiplicity
_atom_site_Wyckoff_symbol
_atom_site_fract_x
_atom_site_fract_y
_atom_site_fract_z
_atom_site_B_iso_or_equiv
_atom_site_occupancy
_atom_site_attached_hydrogens
Cf1 Cf0+ 1 a 0 0 0 . 1. 0
Cf2 Cf0+ 1 c 0 0.5 0 . 1. 0
Cf3 Cf0+ 2 i 0.672 0.259 0.433 . 1. 0
#End of TTdata_52913-ICSD