
#(C) 2018 by FIZ Karlsruhe - Leibniz Institute for Information Infrastructure.  All rights reserved.
data_247205-ICSD
_database_code_ICSD 247205
_audit_creation_date 2010-08-01
_chemical_name_systematic 'Strontium dicopper bis(borate)'
_chemical_formula_structural 'Sr Cu2 (B O3)2'
_chemical_formula_sum 'B2 Cu2 O6 Sr1'
_exptl_crystal_density_diffrn 4.06
_cell_measurement_temperature 590.
_publ_section_title

;
Structural investigation of quaternary copper oxides with low dimensional
magnetic properties
;
loop_
_citation_id
_citation_journal_full
_citation_year
_citation_journal_volume
_citation_page_first
_citation_page_last
_citation_journal_id_ASTM
primary 'Dissertation Rheinisch-Westfaelische Hochschule Aachen' 2003 2003 1 132
DIAACP
loop_
_publ_author_name
'Sparta, K.'
_cell_length_a 9.004(2)
_cell_length_b 9.004(2)
_cell_length_c 6.706(2)
_cell_angle_alpha 90.
_cell_angle_beta 90.
_cell_angle_gamma 90.
_cell_volume 543.67
_cell_formula_units_Z 4
_symmetry_space_group_name_H-M 'I -4 c 2'
_symmetry_Int_Tables_number 120
_refine_ls_R_factor_all 0.0148
loop_
_symmetry_equiv_pos_site_id
_symmetry_equiv_pos_as_xyz
1 'y, x, -z+1/2'
2 '-y, -x, -z+1/2'
3 'y, -x, -z'
4 '-y, x, -z'
5 'x, -y, z+1/2'
6 '-x, y, z+1/2'
7 '-x, -y, z'
8 'x, y, z'
9 'y+1/2, x+1/2, -z'
10 '-y+1/2, -x+1/2, -z'
11 'y+1/2, -x+1/2, -z+1/2'
12 '-y+1/2, x+1/2, -z+1/2'
13 'x+1/2, -y+1/2, z'
14 '-x+1/2, y+1/2, z'
15 '-x+1/2, -y+1/2, z+1/2'
16 'x+1/2, y+1/2, z+1/2'
loop_
_atom_type_symbol
_atom_type_oxidation_number
Sr2+ 2
Cu2+ 2
B3+ 3
O2- -2
loop_
_atom_site_label
_atom_site_type_symbol
_atom_site_symmetry_multiplicity
_atom_site_Wyckoff_symbol
_atom_site_fract_x
_atom_site_fract_y
_atom_site_fract_z
_atom_site_B_iso_or_equiv
_atom_site_occupancy
_atom_site_attached_hydrogens
Sr1 Sr2+ 4 d 0 0.5 0 . 1. 0
Cu1 Cu2+ 8 e 0.11392(4) 0.11392(4) 0.25 . 1. 0
B1 B3+ 8 e 0.2947(4) 0.2947(4) 0.25 . 1. 0
O1 O2- 8 e 0.4018(3) 0.4018(3) 0.25 . 1. 0
O2 O2- 16 i 0.3266(3) 0.1466(3) 0.261(2) . 1. 0
loop_
_atom_site_aniso_label
_atom_site_aniso_type_symbol
_atom_site_aniso_U_11
_atom_site_aniso_U_22
_atom_site_aniso_U_33
_atom_site_aniso_U_12
_atom_site_aniso_U_13
_atom_site_aniso_U_23
Sr1 Sr2+ 0.0163(3) 0.0163(3) 0.0183(4) 0. 0. 0.
Cu1 Cu2+ 0.0089(3) 0.0089(3) 0.0600(6) -0.0014(2) 0.006(1) -0.006(1)
O1 O2- 0.008(1) 0.008(1) 0.128(4) 0. 0. 0.
O2 O2- 0.013(1) 0.009(1) 0.038(3) -0.0011(8) -0.0014(5) 0.007(4)
#End of TTdata_247205-ICSD