
#(C) 2018 by FIZ Karlsruhe - Leibniz Institute for Information Infrastructure.  All rights reserved.
data_27040-ICSD
_database_code_ICSD 27040
_audit_creation_date 1980-01-01
_audit_update_record 1992-01-22
_chemical_name_systematic 'Niobium(III) arsenide'
_chemical_formula_structural 'Nb As'
_chemical_formula_sum 'As1 Nb1'
_exptl_crystal_density_diffrn 8.01
_publ_section_title 'Arsenides and Antimonides of Niobium'
loop_
_citation_id
_citation_journal_full
_citation_year
_citation_journal_volume
_citation_page_first
_citation_page_last
_citation_journal_id_ASTM
primary 'Nature (London, United Kingdom)' 1964 203 512 512 NATUAS
loop_
_publ_author_name
'Furuseth, S.'
'Kjekshus, A.'
_cell_length_a 3.4517
_cell_length_b 3.4517
_cell_length_c 11.68
_cell_angle_alpha 90.
_cell_angle_beta 90.
_cell_angle_gamma 90.
_cell_volume 139.16
_cell_formula_units_Z 4
_symmetry_space_group_name_H-M 'I 41'
_symmetry_Int_Tables_number 80
loop_
_symmetry_equiv_pos_site_id
_symmetry_equiv_pos_as_xyz
1 'y, -x+1/2, z+1/4'
2 '-y, x+1/2, z+1/4'
3 '-x, -y, z'
4 'x, y, z'
5 'y+1/2, -x, z+3/4'
6 '-y+1/2, x, z+3/4'
7 '-x+1/2, -y+1/2, z+1/2'
8 'x+1/2, y+1/2, z+1/2'
loop_
_atom_type_symbol
_atom_type_oxidation_number
As3- -3
Nb3+ 3
loop_
_atom_site_label
_atom_site_type_symbol
_atom_site_symmetry_multiplicity
_atom_site_Wyckoff_symbol
_atom_site_fract_x
_atom_site_fract_y
_atom_site_fract_z
_atom_site_B_iso_or_equiv
_atom_site_occupancy
_atom_site_attached_hydrogens
As1 As3- 4 a 0 0 0.416(1) . 1. 0
Nb1 Nb3+ 4 a 0 0 0 . 1. 0
#End of TTdata_27040-ICSD