
#(C) 2017 by FIZ Karlsruhe - Leibniz Institute for Information Infrastructure.  All rights reserved.
data_10021-ICSD
_database_code_ICSD 10021
_audit_creation_date 1980-01-01
_audit_update_record 2008-02-01
_chemical_name_systematic 'Indium antimonide - IV, HP (gamma 1)'
_chemical_formula_structural 'In Sb'
_chemical_formula_sum 'In1 Sb1'
_chemical_name_structure_type GaAs
_exptl_crystal_density_diffrn 7.81
_cell_measurement_pressure 4350000.
_publ_section_title

;
Polymorphism and the crystal structures of In Sb at elevated temperature and
pressure
;
loop_
_citation_id
_citation_journal_full
_citation_year
_citation_journal_volume
_citation_page_first
_citation_page_last
_citation_journal_id_ASTM
primary 'Journal of Applied Physics' 1978 49 4741 4745 JAPIAU
loop_
_publ_author_name
'Yu Shucheng'
'Spain, I.L.'
'Skelton, E.F.'
_cell_length_a 2.919
_cell_length_b 5.618
_cell_length_c 3.066
_cell_angle_alpha 90.
_cell_angle_beta 90.
_cell_angle_gamma 90.
_cell_volume 50.28
_cell_formula_units_Z 1
_symmetry_space_group_name_H-M 'P m m 2'
_symmetry_Int_Tables_number 25
loop_
_symmetry_equiv_pos_site_id
_symmetry_equiv_pos_as_xyz
1 '-x, y, z'
2 'x, -y, z'
3 '-x, -y, z'
4 'x, y, z'
loop_
_atom_type_symbol
_atom_type_oxidation_number
In3+ 3
Sb3- -3
loop_
_atom_site_label
_atom_site_type_symbol
_atom_site_symmetry_multiplicity
_atom_site_Wyckoff_symbol
_atom_site_fract_x
_atom_site_fract_y
_atom_site_fract_z
_atom_site_B_iso_or_equiv
_atom_site_occupancy
_atom_site_attached_hydrogens
In1 In3+ 1 a 0 0 0 . 1. 0
Sb1 Sb3- 1 b 0 0.5 0.25 . 1. 0
#End of TTdata_10021-ICSD