#------------------------------------------------------------------------------
#$Date: 2016-02-14 09:26:36 -0500 (Sun, 14 Feb 2016) $
#$Revision: 176435 $
#$URL: svn://www.crystallography.net/cod/cif/1/50/91/1509153.cif $
#------------------------------------------------------------------------------
#
# This file is available in the Crystallography Open Database (COD),
# http://www.crystallography.net/
#
# All data on this site have been placed in the public domain by the
# contributors.
#
data_1509153
loop_
_publ_author_name
'Stoerger, G.'
'Frank, G.'
'Klingler, W.'
'Meyer, A.D.'
_publ_section_title
;
 Ueber einige ternaere Chalkogenide mit Chalkopyritstruktur
;
_journal_name_full
'Zeitschrift fuer Anorganische und Allgemeine Chemie'
_journal_page_first              153
_journal_page_last               170
_journal_paper_doi               10.1002/zaac.19532710307
_journal_volume                  271
_journal_year                    1953
_chemical_formula_sum            'Ag Al S2'
_chemical_name_systematic        'Ag Al S2'
_space_group_IT_number           122
_symmetry_space_group_name_Hall  'I -4 2bw'
_symmetry_space_group_name_H-M   'I -4 2 d'
_cell_angle_alpha                90
_cell_angle_beta                 90
_cell_angle_gamma                90
_cell_formula_units_Z            4
_cell_length_a                   5.695
_cell_length_b                   5.695
_cell_length_c                   10.26
_cell_volume                     332.763
_citation_journal_id_ASTM        ZAACAB
_cod_data_source_file            silver1-2_11.cif
_cod_data_source_block           Ag1Al1S2
_cod_original_cell_volume        332.7629
_cod_original_formula_sum        'Ag1 Al1 S2'
_cod_database_code               1509153
loop_
_symmetry_equiv_pos_as_xyz
x,y,z
y,-x,-z
-x,-y,z
-y,x,-z
x,-y+1/2,-z+1/4
-y+1/2,-x,z+3/4
-x,y+1/2,-z+1/4
y+1/2,x,z+3/4
x+1/2,y+1/2,z+1/2
y+1/2,-x+1/2,-z+1/2
-x+1/2,-y+1/2,z+1/2
-y+1/2,x+1/2,-z+1/2
x+1/2,-y+1,-z+3/4
-y+1,-x+1/2,z+5/4
-x+1/2,y+1,-z+3/4
y+1,x+1/2,z+5/4
loop_
_atom_site_label
_atom_site_type_symbol
_atom_site_fract_x
_atom_site_fract_y
_atom_site_fract_z
_atom_site_occupancy
_atom_site_U_iso_or_equiv
Ag1 Ag+1 0 0 0 1 0.0
Al1 Al+3 0 0 0.5 1 0.0
S1 S-2 0.3 0.25 0.125 1 0.0
