
#(C) 2018 by FIZ Karlsruhe - Leibniz Institute for Information Infrastructure.  All rights reserved.
data_93795-ICSD
_database_code_ICSD 93795
_audit_creation_date 2003-04-01
_audit_update_record 2011-02-01
_chemical_name_systematic 'Cobalt tellurium molybdenum oxide'
_chemical_formula_structural 'Co Te Mo O6'
_chemical_formula_sum 'Co1 Mo1 O6 Te1'
_chemical_name_structure_type CoTeMoO6
_exptl_crystal_density_diffrn 5.33
_publ_section_title

;
X-ray and TEM studies of Cd Te Mo O6 and Co Te Mo O6: a new superstructure of
fluorite type with cation and anion deficiencies ((vac) Co Te Mo) ((vac)2 O6)
;
loop_
_citation_id
_citation_journal_full
_citation_year
_citation_journal_volume
_citation_page_first
_citation_page_last
_citation_journal_id_ASTM
primary 'Journal of Solid State Chemistry' 2001 160 401 408 JSSCBI
loop_
_publ_author_name
'Laligant, Y.'
_cell_length_a 5.2545(1)
_cell_length_b 5.0653(1)
_cell_length_c 8.8589(2)
_cell_angle_alpha 90
_cell_angle_beta 90
_cell_angle_gamma 90
_cell_volume 235.79
_cell_formula_units_Z 2
_symmetry_space_group_name_H-M 'P 21 21 2'
_symmetry_Int_Tables_number 18
_refine_ls_R_factor_all 0.05
loop_
_symmetry_equiv_pos_site_id
_symmetry_equiv_pos_as_xyz
1 '-x+1/2, y+1/2, -z'
2 'x+1/2, -y+1/2, -z'
3 '-x, -y, z'
4 'x, y, z'
loop_
_atom_type_symbol
_atom_type_oxidation_number
Co2+ 2
Te4+ 4
Mo6+ 6
O2- -2
loop_
_atom_site_label
_atom_site_type_symbol
_atom_site_symmetry_multiplicity
_atom_site_Wyckoff_symbol
_atom_site_fract_x
_atom_site_fract_y
_atom_site_fract_z
_atom_site_B_iso_or_equiv
_atom_site_occupancy
_atom_site_attached_hydrogens
Co1 Co2+ 2 a 0 0 0.5 0.59(3) 1. 0
Te1 Te4+ 2 b 0 0.5 0.2508(2) 0.26(3) 1. 0
Mo1 Mo6+ 2 b 0 0.5 0.8048(2) 0.41(4) 1. 0
O1 O2- 4 c 0.322(2) 0.826(2) 0.076(1) 0.9(2) 1. 0
O2 O2- 4 c 0.188(2) 0.762(3) 0.691(1) 0.8(2) 1. 0
O3 O2- 4 c 0.199(3) 0.696(2) 0.400(1) 1.3(2) 1. 0
#End of TTdata_93795-ICSD