
#(C) 2018 by FIZ Karlsruhe - Leibniz Institute for Information Infrastructure.  All rights reserved.
data_41532-ICSD
_database_code_ICSD 41532
_audit_creation_date 1999-11-30
_audit_update_record 2015-08-01
_chemical_name_systematic Hydrogenperoxide
_chemical_formula_structural 'H2 O2'
_chemical_formula_sum 'H2 O2'
_chemical_name_structure_type H2O2
_chemical_name_mineral 'Hydrogen peroxide'
_exptl_crystal_density_diffrn 1.8
_cell_measurement_temperature 110.
_publ_section_title

;
Experimental determination of the deformation electron density in hydrogen
peroxide by combination of X-ray and neutron diffraction measurements
;
loop_
_citation_id
_citation_journal_full
_citation_year
_citation_journal_volume
_citation_page_first
_citation_page_last
_citation_journal_id_ASTM
primary 'Journal of the American Chemical Society' 1980 102 1298 1303 JACSAT
loop_
_publ_author_name
'Savariault, J.M.'
'Lehmann, M.S.'
_cell_length_a 4.004(8)
_cell_length_b 4.004(8)
_cell_length_c 7.832(13)
_cell_angle_alpha 90.
_cell_angle_beta 90.
_cell_angle_gamma 90.
_cell_volume 125.56
_cell_formula_units_Z 4
_symmetry_space_group_name_H-M 'P 41 21 2'
_symmetry_Int_Tables_number 92
_refine_ls_R_factor_all 0.063
loop_
_symmetry_equiv_pos_site_id
_symmetry_equiv_pos_as_xyz
1 'x+1/2, -y+1/2, -z+3/4'
2 '-x+1/2, y+1/2, -z+1/4'
3 '-y, -x, -z+1/2'
4 'y, x, -z'
5 'y+1/2, -x+1/2, z+3/4'
6 '-y+1/2, x+1/2, z+1/4'
7 '-x, -y, z+1/2'
8 'x, y, z'
loop_
_atom_type_symbol
_atom_type_oxidation_number
O1- -1
H1+ 1
loop_
_atom_site_label
_atom_site_type_symbol
_atom_site_symmetry_multiplicity
_atom_site_Wyckoff_symbol
_atom_site_fract_x
_atom_site_fract_y
_atom_site_fract_z
_atom_site_B_iso_or_equiv
_atom_site_occupancy
_atom_site_attached_hydrogens
O1 O1- 8 b 0.0762(3) 0.1670(3) 0.2204(1) . 1. 0
H1 H1+ 8 b -0.0483(7) 0.2834(6) 0.1296(3) . 1. 0
loop_
_atom_site_aniso_label
_atom_site_aniso_type_symbol
_atom_site_aniso_U_11
_atom_site_aniso_U_22
_atom_site_aniso_U_33
_atom_site_aniso_U_12
_atom_site_aniso_U_13
_atom_site_aniso_U_23
O1 O1- 0.0096(4) 0.0107(4) 0.0120(3) -.0001(4) -.0004(3) 0.0003(3)
H1 H1+ 0.0245(9) 0.0203(9) 0.0245(7) 0.0018(7) -.0038(7) 0.0072(6)
#End of TTdata_41532-ICSD