
#(C) 2018 by FIZ Karlsruhe - Leibniz Institute for Information Infrastructure.  All rights reserved.
data_174241-ICSD
_database_code_ICSD 174241
_audit_creation_date 2010-08-01
_audit_update_record 2013-08-01
_chemical_name_systematic 'Magnesium boride (4.8/44)'
_chemical_formula_structural 'Mg4.8 B44'
_chemical_formula_sum 'B44 Mg4.8'
_chemical_name_structure_type B44Mg5-x
_exptl_crystal_density_diffrn 2.54
_cell_measurement_temperature 294.
_publ_section_title

;
Synthese, Struktur- und Eigenschaftsuntersuchungen borreicher Boride des
Magnesiums, Scandiums, Yttriums und der Lanthanoide
;
loop_
_citation_id
_citation_journal_full
_citation_year
_citation_journal_volume
_citation_page_first
_citation_page_last
_citation_journal_id_ASTM
primary 'Dissertation Universitaet Freiburg/Breisgau' 2009 2009 1 241 DIFREZ
loop_
_publ_author_name
'Pediaditakis, A.S.'
_cell_length_a 10.3795(15)
_cell_length_b 10.3795(15)
_cell_length_c 14.391(3)
_cell_angle_alpha 90.
_cell_angle_beta 90.
_cell_angle_gamma 90.
_cell_volume 1550.4
_cell_formula_units_Z 4
_symmetry_space_group_name_H-M 'P 41 21 2'
_symmetry_Int_Tables_number 92
_refine_ls_R_factor_all 0.0365
loop_
_symmetry_equiv_pos_site_id
_symmetry_equiv_pos_as_xyz
1 'x+1/2, -y+1/2, -z+3/4'
2 '-x+1/2, y+1/2, -z+1/4'
3 '-y, -x, -z+1/2'
4 'y, x, -z'
5 'y+1/2, -x+1/2, z+3/4'
6 '-y+1/2, x+1/2, z+1/4'
7 '-x, -y, z+1/2'
8 'x, y, z'
loop_
_atom_type_symbol
_atom_type_oxidation_number
Mg0+ 0
B0+ 0
loop_
_atom_site_label
_atom_site_type_symbol
_atom_site_symmetry_multiplicity
_atom_site_Wyckoff_symbol
_atom_site_fract_x
_atom_site_fract_y
_atom_site_fract_z
_atom_site_B_iso_or_equiv
_atom_site_occupancy
_atom_site_attached_hydrogens
Mg1 Mg0+ 8 b 0.19783(5) 0.12524(5) 0.23383(4) 0.00936(15) 0.5353(18) 0
Mg2 Mg0+ 8 b 0.42009(5) 0.48367(5) 0.18132(4) 0.00735(14) 0.533(2) 0
Mg3 Mg0+ 8 b 0.16425(11) 0.10132(8) 0.16457(6) 0.0237(3) 0.440(2) 0
Mg4 Mg0+ 8 b 0.43763(6) 0.11721(6) 0.15043(4) 0.00488(16) 0.4406(17) 0
Mg5 Mg0+ 8 b 0.20982(6) 0.01519(6) 0.37486(4) 0.00542(16) 0.4384(17) 0
B1 B0+ 8 b 0.12803(7) 0.23996(8) 0.37611(6) 0.00546(12) 1. 0
B2 B0+ 8 b 0.04009(8) 0.13894(8) 0.45861(5) 0.00549(12) 1. 0
B3 B0+ 8 b 0.04790(7) 0.31226(8) 0.47695(5) 0.00572(12) 1. 0
B4 B0+ 8 b 0.04159(8) 0.39119(8) 0.36463(5) 0.00549(12) 1. 0
B5 B0+ 8 b 0.01893(7) 0.11067(8) 0.32979(5) 0.00553(12) 1. 0
B6 B0+ 8 b 0.03125(7) 0.27161(8) 0.27735(5) 0.00522(11) 1. 0
B7 B0+ 8 b 0.38867(8) 0.27610(8) 0.25712(5) 0.00546(12) 1. 0
B8 B0+ 8 b 0.39891(8) 0.11336(8) 0.31063(5) 0.00608(12) 1. 0
B9 B0+ 8 b 0.377753(7) 0.39456(8) 0.34592(5) 0.00530(12) 1. 0
B10 B0+ 8 b 0.37899(7) 0.30929(8) 0.45548(5) 0.00501(11) 1. 0
B11 B0+ 8 b 0.38764(8) 0.14250(8) 0.43847(5) 0.00545(12) 1. 0
B12 B0+ 8 b 0.29414(7) 0.24122(7) 0.36234(5) 0.00501(12) 1. 0
B13 B0+ 8 b 0.18422(8) 0.43914(7) 0.13732(5) 0.00558(12) 1. 0
B14 B0+ 8 b 0.10981(8) 0.29639(7) 0.17261(5) 0.00565(12) 1. 0
B15 B0+ 8 b 0.28882(7) 0.30130(8) 0.15430(5) 0.00568(12) 1. 0
B16 B0+ 8 b 0.03047(8) 0.38196(8) 0.08642(5) 0.00542(12) 1. 0
B17 B0+ 8 b 0.03498(8) 0.21024(8) 0.07616(5) 0.00636(12) 1. 0
B18 B0+ 8 b 0.30926(8) 0.40145(8) 0.04996(5) 0.00592(12) 1. 0
B19 B0+ 8 b 0.31281(8) 0.22621(7) 0.04543(5) 0.00555(12) 1. 0
B20 B0+ 8 b 0.14869(8) 0.45432(8) 0.00655(5) 0.00597(12) 1. 0
B21 B0+ 8 b 0.30696(8) 0.05658(7) 0.02533(5) 0.00589(12) 1. 0
B22 B0+ 4 a 0.16509(8) 0.16509(8) 0 0.00589(16) 1. 0
B23 B0+ 4 a 0.46004(8) 0.46004(8) 0 0.00593(16) 1. 0
loop_
_atom_site_aniso_label
_atom_site_aniso_type_symbol
_atom_site_aniso_U_11
_atom_site_aniso_U_22
_atom_site_aniso_U_33
_atom_site_aniso_U_12
_atom_site_aniso_U_13
_atom_site_aniso_U_23
Mg1 Mg0+ 0.0073(2) 0.0046(2) 0.0161(3) 0.00009(16) -0.00331(18) 0.00024(17)
Mg2 Mg0+ 0.0056(2) 0.0055(2) 0.0109(2) 0.00036(16) 0.00030(16) 0.00134(16)
Mg3 Mg0+ 0.0458(6) 0.0085(3) 0.0169(4) 0.0139(3) 0.0143(3) 0.0077(3)
Mg4 Mg0+ 0.0046(3) 0.0057(3) 0.0044(2) 0.00029(19) -0.00041(17) -0.00052(17)
Mg5 Mg0+ 0.0057(3) 0.0052(3) 0.0054(2) 0.00069(19) 0.00003(18) 0.00065(18)
B1 B0+ 0.0048(3) 0.0056(3) 0.0060(2) 0.0001(2) -0.0006(2) 0.0002(2)
B2 B0+ 0.0056(3) 0.0053(3) 0.0056(3) -0.0003(2) 0.0000(2) 0.0004(2)
B3 B0+ 0.0057(3) 0.0054(3) 0.0061(3) -0.0005(2) -0.0008(2) 0.0003(2)
B4 B0+ 0.0052(3) 0.0055(3) 0.0058(3) -0.0001(2) -0.0003(2) 0.0003(2)
B5 B0+ 0.0052(3) 0.0052(3) 0.0062(3) 0.0005(2) -0.0003(2) 0.0003(2)
B6 B0+ 0.0047(3) 0.0058(3) 0.0052(2) 0.0000(2) 0.0000(2) 0.0002(2)
B7 B0+ 0.0055(3) 0.0056(3) 0.0053(3) 0.0002(2) 0.0000(2) 0.0001(2)
B8 B0+ 0.0055(3) 0.0062(3) 0.0066(3) -0.0001(2) 0.0002(2) -0.0002(2)
B9 B0+ 0.0051(3) 0.0051(3) 0.0057(3) 0.0000(2) 0.0000(2) 0.0001(2)
B10 B0+ 0.0045(3) 0.0049(3) 0.0056(3) 0.0002(2) 0.0002(2) -0.0001(2)
B11 B0+ 0.0045(3) 0.0059(3) 0.0060(3) -0.0001(2) 0.0000(2) 0.0006(2)
B12 B0+ 0.0045(3) 0.0054(3) 0.0052(3) -0.0001(2) -0.0003(2) 0.0000(2)
B13 B0+ 0.0058(3) 0.0052(3) 0.0058(3) -0.0003(2) 0.0004(2) -0.0001(2)
B14 B0+ 0.0057(3) 0.0059(3) 0.0054(2) -0.0001(2) 0.0000(2) 0.0005(2)
B15 B0+ 0.0052(3) 0.0062(3) 0.0057(2) 0.0004(2) -0.0003(2) 0.0001(2)
B16 B0+ 0.0049(3) 0.0056(3) 0.0058(3) 0.0003(2) 0.0001(2) -0.0001(2)
B17 B0+ 0.0061(3) 0.0067(3) 0.0063(3) -0.0017(2) 0.0012(2) -0.0009(2)
B18 B0+ 0.0052(3) 0.0060(3) 0.0066(3) 0.0002(2) 0.0001(2) -0.0005(2)
B19 B0+ 0.0056(3) 0.0050(3) 0.0060(3) 0.0004(2) 0.0001(2) -0.0003(2)
B20 B0+ 0.0053(3) 0.0054(3) 0.0072(3) -0.0005(2) 0.0002(2) 0.0004(2)
B21 B0+ 0.0063(3) 0.0050(3) 0.0064(3) -0.0003(2) 0.0008(2) 0.0005(2)
B22 B0+ 0.0051(2) 0.0051(2) 0.0074(4) 0.0003(3) 0.0002(2) -0.0002(2)
B23 B0+ 0.0054(2) 0.0054(2) 0.0070(4) -0.0007(3) -0.0003(2) 0.0003(2)
#End of TTdata_174241-ICSD