
#(C) 2018 by FIZ Karlsruhe - Leibniz Institute for Information Infrastructure.  All rights reserved.
data_185807-ICSD
_database_code_ICSD 185807
_audit_creation_date 2013-02-01
_audit_update_record 2016-02-01
_chemical_name_systematic 'Copper sulfide (29/16)'
_chemical_formula_structural 'Cu29 S16'
_chemical_formula_sum 'Cu29 S16'
_chemical_name_mineral Roxbyite
_exptl_crystal_density_diffrn 5.62
_publ_section_title 'The crystal structure of roxbyite,  Cu58 S32'
loop_
_citation_id
_citation_journal_full
_citation_year
_citation_journal_volume
_citation_page_first
_citation_page_last
_citation_journal_id_ASTM
primary 'Canadian Mineralogist' 2012 50 423 430 CAMIA6
loop_
_publ_author_name
'Mumme, W.G.'
'Gable, R.W.'
'Petricek, V.'
_cell_length_a 13.4090(8)
_cell_length_b 13.4051(9)
_cell_length_c 15.4852(3)
_cell_angle_alpha 90.022(2)
_cell_angle_beta 90.021(2)
_cell_angle_gamma 90.020(3)
_cell_volume 2783.45
_cell_formula_units_Z 4
_symmetry_space_group_name_H-M 'P -1'
_symmetry_Int_Tables_number 2
_refine_ls_R_factor_all 0.079
loop_
_symmetry_equiv_pos_site_id
_symmetry_equiv_pos_as_xyz
1 '-x, -y, -z'
2 'x, y, z'
loop_
_atom_type_symbol
_atom_type_oxidation_number
Cu1+ 1
Cu2+ 2
Cu1+ 1
Cu2+ 2
Cu1+ 1
Cu2+ 2
Cu1+ 1
Cu2+ 2
Cu1+ 1
S2- -2
S1- -1
S2- -2
loop_
_atom_site_label
_atom_site_type_symbol
_atom_site_symmetry_multiplicity
_atom_site_Wyckoff_symbol
_atom_site_fract_x
_atom_site_fract_y
_atom_site_fract_z
_atom_site_B_iso_or_equiv
_atom_site_occupancy
_atom_site_attached_hydrogens
Cu1 Cu1+ 2 i 0.0328(5) 0.1474(5) 0.3739(6) 0.0213(14) 1. 0
Cu2 Cu1+ 2 i 0.0225(6) -0.4368(6) 0.8817(6) 0.0262(18) 1. 0
Cu3 Cu1+ 2 i 0.0332(7) 0.3117(8) 0.9668(6) 0.028(2) 1. 0
Cu4 Cu1+ 2 i 0.0377(6) -0.6735(6) 0.4932(5) 0.0274(17) 1. 0
Cu5 Cu1+ 2 i 0.0398(6) 0.3203(7) 0.2612(6) 0.0204(17) 1. 0
Cu6 Cu1+ 2 i 0.0306(6) 0.3211(6) 0.7703(5) 0.0175(16) 1. 0
Cu7 Cu1+ 2 i 0.0338(5) 0.1377(5) 0.8773(7) 0.0195(15) 1. 0
Cu8 Cu1+ 2 i 0.0242(6) -0.4295(6) 0.3645(6) 0.031(2) 1. 0
Cu9 Cu1+ 2 i 0.0467(4) 0.1038(5) 0.1297(6) 0.0180(13) 1. 0
Cu10 Cu1+ 2 i 0.0394(5) -0.8931(5) 0.6241(6) 0.0194(14) 1. 0
Cu11 Cu2+ 2 i 0.1406(6) -0.2565(7) 0.6229(9) 0.028(2) 1. 0
Cu12 Cu1+ 2 i 0.1067(8) 0.9937(10) 0.9990(11) 0.028(3) 1. 0
Cu13 Cu1+ 2 i 0.1180(6) -0.5059(8) 0.7365(6) 0.034(2) 1. 0
Cu14 Cu1+ 2 i 0.1319(8) -0.5078(10) 0.0100(8) 0.036(2) 1. 0
Cu15 Cu1+ 2 i 0.1444(6) -0.2548(7) 0.1285(8) 0.025(2) 1. 0
Cu16 Cu1+ 2 i 0.1288(6) -0.0048(6) 0.2509(6) 0.0195(19) 1. 0
Cu17 Cu1+ 2 i 0.1112(7) 0.9946(8) 0.7519(8) 0.019(2) 1. 0
Cu18 Cu1+ 2 i 0.1196(7) -0.2543(8) 0.8722(6) 0.021(2) 1. 0
Cu19 Cu1+ 2 i 0.1055(9) -0.0052(10) 0.5010(10) 0.032(3) 1. 0
Cu20 Cu1+ 2 i 0.2153(7) 0.3053(9) 0.7139(7) 0.034(2) 1. 0
Cu21 Cu1+ 2 i 0.2231(6) -0.6203(6) 0.4746(5) 0.0258(17) 1. 0
Cu22 Cu1+ 2 i 0.2139(8) -0.1957(9) 0.4665(7) 0.039(2) 1. 0
Cu23 Cu2+ 2 i 0.2114(7) -0.4469(8) 0.1668(7) 0.029(2) 1. 0
Cu24 Cu1+ 2 i 0.2190(7) -0.8986(7) 0.3772(7) 0.046(2) 1. 0
Cu25 Cu1+ 2 i 0.2120(8) -0.1930(9) 0.2839(7) 0.031(2) 1. 0
Cu26 Cu1+ 2 i 0.2219(9) 0.3066(10) 0.0359(8) 0.041(3) 1. 0
Cu27 Cu1+ 2 i 0.2349(8) 0.3745(7) 0.2912(6) 0.0329(18) 1. 0
Cu28 Cu1+ 2 i 0.2176(8) -0.4398(9) 0.3797(6) 0.036(2) 1. 0
Cu29 Cu1+ 2 i 0.2090(8) 0.5529(9) 0.5797(7) 0.037(2) 1. 0
Cu30 Cu1+ 2 i 0.2934(7) 0.6941(9) 0.9688(7) 0.034(2) 1. 0
Cu31 Cu1+ 2 i 0.2853(7) -0.5775(7) 0.8785(7) 0.045(2) 1. 0
Cu32 Cu1+ 2 i 0.2904(8) -0.3062(10) 0.7823(7) 0.037(2) 1. 0
Cu33 Cu1+ 2 i 0.2862(7) -0.7983(8) 0.2086(7) 0.032(2) 1. 0
Cu34 Cu1+ 2 i 0.2804(7) -0.8019(8) 0.5386(6) 0.031(2) 1. 0
Cu35 Cu1+ 2 i 0.2949(7) -0.0535(7) 0.0856(6) 0.0260(19) 1. 0
Cu36 Cu2+ 2 i 0.2693(8) 0.1278(9) -0.0383(7) 0.048(3) 1. 0
Cu37 Cu2+ 2 i 0.2735(7) 0.8795(7) 0.2252(6) 0.039(2) 1. 0
Cu38 Cu1+ 2 i 0.2906(8) -0.0526(9) -0.3323(7) 0.035(2) 1. 0
Cu39 Cu1+ 2 i 0.2860(12) -0.0575(15) -0.1287(11) 0.074(4) 1. 0
Cu40 Cu1+ 2 i 0.3674(5) -0.2399(6) 0.6282(7) 0.0150(17) 1. 0
Cu41 Cu1+ 2 i 0.3703(6) -0.2396(7) 0.1226(8) 0.024(2) 1. 0
Cu42 Cu1+ 2 i 0.3836(8) -0.2442(10) 0.3745(7) 0.030(2) 1. 0
Cu43 Cu1+ 2 i 0.3738(7) -0.4994(8) 0.0060(6) 0.029(2) 1. 0
Cu44 Cu1+ 2 i 0.3920(7) -0.4949(10) 0.2511(11) 0.028(3) 1. 0
Cu45 Cu1+ 2 i 0.3887(8) 0.5042(10) 0.5009(9) 0.028(3) 1. 0
Cu46 Cu1+ 2 i 0.3856(8) 0.5043(11) 0.7513(9) 0.025(3) 1. 0
Cu47 Cu1+ 2 i 0.3736(6) 0.0091(8) 0.5079(7) 0.026(2) 1. 0
Cu48 Cu1+ 2 i 0.3672(6) 0.0091(7) 0.2397(5) 0.0236(17) 1. 0
Cu49 Cu2+ 2 i 0.4651(6) -0.8156(7) 0.9696(5) 0.0303(19) 1. 0
Cu50 Cu1+ 2 i 0.4706(7) 0.1860(7) 0.2827(6) 0.0288(19) 1. 0
Cu51 Cu1+ 2 i 0.4562(6) 0.1793(7) 0.7502(7) 0.0300(19) 1. 0
Cu52 Cu1+ 2 i 0.4679(6) -0.8064(6) 0.4590(5) 0.0156(15) 1. 0
Cu53 Cu1+ 2 i 0.4681(4) -0.0872(4) 0.8646(4) 0.0108(13) 1. 0
Cu54 Cu1+ 2 i 0.4711(5) -0.0761(6) 0.3660(5) 0.0253(17) 1. 0
Cu55 Cu1+ 2 i 0.4630(6) 0.3803(5) 0.3737(7) 0.0258(17) 1. 0
Cu56 Cu1+ 2 i 0.4510(5) -0.6307(6) 0.6290(8) 0.0322(18) 1. 0
Cu57 Cu1+ 2 i 0.4662(6) 0.3746(6) 0.8686(9) 0.036(2) 1. 0
Cu58 Cu1+ 2 i 0.4598(5) -0.6304(6) 0.1217(8) 0.0320(18) 1. 0
S1 S2- 2 i 0.1217(10) 0.1669(12) 0.0075(9) 0.017(3) 1. 0
S2 S2- 2 i 0.3718(8) 0.5873(10) 0.6277(10) 0.008(3) 1. 0
S3 S2- 2 i 0.1208(7) 0.4183(8) 0.8745(8) 0.003(2) 1. 0
S4 S2- 2 i 0.3611(6) 0.1012(6) 0.1170(6) 0.0014(17) 1. 0
S5 S2- 2 i 0.1226(8) 0.9073(9) 0.8717(11) 0.010(3) 1. 0
S6 S2- 2 i 0.3871(10) 0.0783(12) 0.3744(14) 0.024(4) 1. 0
S7 S2- 2 i 0.3730(9) -0.4111(10) 0.1283(10) 0.005(3) 1. 0
S8 S2- 2 i 0.1252(8) -0.0932(9) 0.3729(10) 0.008(3) 1. 0
S9 S2- 2 i 0.3611(7) 0.1013(7) 0.6268(8) 0.0067(19) 1. 0
S10 S2- 2 i 0.3725(10) -0.1622(11) 0.2518(10) 0.008(3) 1. 0
S11 S2- 2 i 0.3716(10) 0.5823(10) 0.8689(10) 0.020(4) 1. 0
S12 S2- 2 i 0.1416(9) -0.5887(9) 0.1380(8) 0.023(3) 1. 0
S13 S2- 2 i 0.1134(9) 0.1703(10) 0.7437(9) 0.010(3) 1. 0
S14 S2- 2 i 0.3983(10) 0.0801(11) 0.8731(11) 0.024(3) 1. 0
S15 S2- 2 i 0.3672(9) -0.1627(10) 0.7594(9) 0.005(3) 1. 0
S16 S2- 2 i 0.3832(10) 0.5819(10) 0.3685(10) 0.019(4) 1. 0
S17 S2- 2 i 0.1384(9) 0.4126(9) 0.6098(8) 0.021(3) 1. 0
S18 S1- 2 i 0.3693(11) 0.1573(13) 0.0066(12) 0.017(3) 1. 0
S19 S2- 2 i 0.3833(10) 0.3380(11) 0.4953(9) 0.016(3) 1. 0
S20 S2- 2 i 0.3818(10) 0.3369(12) 0.9935(9) 0.018(4) 1. 0
S21 S2- 2 i 0.1239(10) 0.1713(10) 0.2464(8) 0.006(3) 1. 0
S22 S2- 2 i 0.3731(10) 0.8446(12) 0.4987(10) 0.011(3) 1. 0
S23 S2- 2 i 0.1322(10) -0.3378(12) 0.2582(11) 0.013(4) 1. 0
S24 S2- 2 i 0.1241(13) 0.1645(16) 0.5033(12) 0.027(4) 1. 0
S25 S2- 2 i 0.3845(10) 0.3310(11) 0.2525(8) 0.008(3) 1. 0
S26 S2- 2 i 0.1311(12) -0.0928(14) -0.3710(12) 0.024(4) 1. 0
S27 S2- 2 i 0.3693(8) 0.3348(9) 0.7550(8) 0.005(2) 1. 0
S28 S2- 2 i 0.1294(13) 0.6539(14) 0.4985(13) 0.025(4) 1. 0
S29 S2- 2 i 0.1136(8) -0.5836(8) 0.3740(11) 0.008(2) 1. 0
S30 S2- 2 i 0.1281(13) 0.6621(14) 0.7485(13) 0.022(4) 1. 0
S31 S2- 2 i 0.1362(10) 0.9078(12) 0.1293(11) 0.020(4) 1. 0
S32 S2- 2 i 0.1316(11) -0.3410(12) 0.0042(11) 0.016(4) 1. 0
#End of TTdata_185807-ICSD