
#(C) 2018 by FIZ Karlsruhe - Leibniz Institute for Information Infrastructure.  All rights reserved.
data_62772-ICSD
_database_code_ICSD 62772
_audit_creation_date 1988-07-15
_audit_update_record 1992-08-19
_chemical_name_systematic 'Aluminium phosphate - calcined'
_chemical_formula_structural 'Al P O4'
_chemical_formula_sum 'Al1 O4 P1'
_exptl_crystal_density_diffrn 1.77
_publ_section_title

;
Aluminophosphate number 5: Time-of-flight neutron powder diffraction study of
calcined powder at 295 K.
;
loop_
_citation_id
_citation_journal_full
_citation_year
_citation_journal_volume
_citation_page_first
_citation_page_last
_citation_journal_id_ASTM
primary 'Acta Crystallographica, Section C: Crystal Structure Communications'
1987 43 1469 1472 ACSCEE
loop_
_publ_author_name
'Richardson, J.W.jr.'
'Pluth, J.J.'
'Smith, J.V.'
_cell_length_a 13.7707(3)
_cell_length_b 13.7707(3)
_cell_length_c 8.3789(6)
_cell_angle_alpha 90.
_cell_angle_beta 90.
_cell_angle_gamma 120.
_cell_volume 1376.04
_cell_formula_units_Z 12
_symmetry_space_group_name_H-M 'P 6/m c c'
_symmetry_Int_Tables_number 192
_refine_ls_R_factor_all 0.019
loop_
_symmetry_equiv_pos_site_id
_symmetry_equiv_pos_as_xyz
1 'x, x-y, z+1/2'
2 '-x+y, y, z+1/2'
3 '-y, -x, z+1/2'
4 'x, x-y, -z+1/2'
5 '-x+y, y, -z+1/2'
6 '-y, -x, -z+1/2'
7 'x-y, x, z'
8 'y, -x+y, z'
9 '-x, -y, z'
10 'x-y, x, -z'
11 'y, -x+y, -z'
12 '-x, -y, -z'
13 '-x, -x+y, -z+1/2'
14 'x-y, -y, -z+1/2'
15 'y, x, -z+1/2'
16 '-x, -x+y, z+1/2'
17 'x-y, -y, z+1/2'
18 'y, x, z+1/2'
19 '-x+y, -x, -z'
20 '-y, x-y, -z'
21 'x, y, -z'
22 '-x+y, -x, z'
23 '-y, x-y, z'
24 'x, y, z'
loop_
_atom_type_symbol
_atom_type_oxidation_number
Al3+ 3
P5+ 5
O2- -2
loop_
_atom_site_label
_atom_site_type_symbol
_atom_site_symmetry_multiplicity
_atom_site_Wyckoff_symbol
_atom_site_fract_x
_atom_site_fract_y
_atom_site_fract_z
_atom_site_B_iso_or_equiv
_atom_site_occupancy
_atom_site_attached_hydrogens
Al1 Al3+ 24 m 0.4574(4) 0.3367(7) 0.8095(6) . 0.5 0
P1 P5+ 24 m 0.4574(4) 0.3367(7) 0.8095(6) . 0.5 0
O1 O2- 12 k 0.2098(3) 0.4196(5) 0.25 . 1. 0
O2 O2- 12 l 0.4530(13) 0.3336(11) 0 . 1. 0
O3 O2- 12 j 0.3639(6) 0 0.25 . 1. 0
O4 O2- 12 k 0.5778(3) 0.1556(6) 0.25 . 1. 0
loop_
_atom_site_aniso_label
_atom_site_aniso_type_symbol
_atom_site_aniso_U_11
_atom_site_aniso_U_22
_atom_site_aniso_U_33
_atom_site_aniso_U_12
_atom_site_aniso_U_13
_atom_site_aniso_U_23
Al1 Al3+ 0.024(4) 0.055(5) 0.060(3) 0.014(4) -.021(3) 0.008(4)
P1 P5+ 0.024(4) 0.055(5) 0.060(3) 0.014(4) -.021(3) 0.008(4)
O1 O2- 0.042(4) 0.050(5) 0.097(5) 0.025(3) 0 0.039(6)
O2 O2- 0.235(12) 0.141(12) 0.101(9) 0.093(15) 0 0
O3 O2- 0.067(5) 0.034(5) 0.200(11) 0.017(2) -.012(3) -.024(7)
O4 O2- 0.055(4) 0.050(4) 0.164(11) 0.025(2) 0 0.007(10)
#End of TTdata_62772-ICSD