
#(C) 2017 by FIZ Karlsruhe - Leibniz Institute for Information Infrastructure, and the U.S. Secretary of
#Commerce on behalf of the United States.  All rights reserved.
data_648748-ICSD
_database_code_ICSD 648748
_audit_creation_date 2013-08-01
_audit_update_record 2017-08-01
_chemical_name_systematic 'Palladium sulfide (4/1)'
_chemical_formula_structural 'Pd4 S'
_chemical_formula_sum 'Pd4 S1'
_chemical_name_structure_type Pd4Se
_exptl_crystal_density_diffrn 10.39
_publ_section_title 'On the sulfides, selenides and tellurides of palladium'
_publ_section_comment 'Cell and Type only determined'
loop_
_citation_id
_citation_journal_full
_citation_year
_citation_journal_volume
_citation_page_first
_citation_page_last
_citation_journal_id_ASTM
primary 'Acta Chemica Scandinavica (1-27,1973-42,1988)' 1956 10 1620 1634 ACSAA4
loop_
_publ_author_name
'Gronvold, Fredrik'
'Rost, Erling'
_cell_length_a 5.1147
_cell_length_b 5.1147
_cell_length_c 5.5903
_cell_angle_alpha 90.
_cell_angle_beta 90.
_cell_angle_gamma 90.
_cell_volume 146.24
_cell_formula_units_Z 2
_symmetry_space_group_name_H-M 'P -4 21 c'
_symmetry_Int_Tables_number 114
loop_
_symmetry_equiv_pos_site_id
_symmetry_equiv_pos_as_xyz
1 'y+1/2, x+1/2, z+1/2'
2 'y, -x, -z'
3 '-y+1/2, -x+1/2, z+1/2'
4 '-y, x, -z'
5 'x+1/2, -y+1/2, -z+1/2'
6 '-x, -y, z'
7 '-x+1/2, y+1/2, -z+1/2'
8 'x, y, z'
loop_
_atom_type_symbol
_atom_type_oxidation_number
Pd0+ 0
S0+ 0
loop_
_atom_site_label
_atom_site_type_symbol
_atom_site_symmetry_multiplicity
_atom_site_Wyckoff_symbol
_atom_site_fract_x
_atom_site_fract_y
_atom_site_fract_z
_atom_site_B_iso_or_equiv
_atom_site_occupancy
_atom_site_attached_hydrogens
Pd1 Pd0+ 8 e 0.374 0.232 0.154 . 1. 0
S1 S0+ 2 a 0 0 0 . 1. 0
#End of TTdata_648748-ICSD