
#(C) 2018 by FIZ Karlsruhe - Leibniz Institute for Information Infrastructure.  All rights reserved.
data_20357-ICSD
_database_code_ICSD 20357
_audit_creation_date 1980-01-01
_audit_update_record 2008-08-01
_chemical_name_systematic 'Zirconium silicide (5/4)'
_chemical_formula_structural 'Zr5 Si4'
_chemical_formula_sum 'Si4 Zr5'
_chemical_name_structure_type Zr5Si4
_exptl_crystal_density_diffrn 5.72
_publ_section_title 'The crystal structure of the compound Zr5 Si4'
loop_
_citation_id
_citation_journal_full
_citation_year
_citation_journal_volume
_citation_page_first
_citation_page_last
_citation_journal_id_ASTM
primary 'Izvestiya Akademii Nauk SSSR, Neorganicheskie Materialy' 1968 4 1248
1254 IVNMAW
loop_
_publ_author_name
'Karpinskii, O.G.'
'Evseev, B.A.'
_cell_length_a 7.123(1)
_cell_length_b 7.123(1)
_cell_length_c 13.002(1)
_cell_angle_alpha 90.
_cell_angle_beta 90.
_cell_angle_gamma 90.
_cell_volume 659.68
_cell_formula_units_Z 4
_symmetry_space_group_name_H-M 'P 41 21 2'
_symmetry_Int_Tables_number 92
_refine_ls_R_factor_all 0.135
loop_
_symmetry_equiv_pos_site_id
_symmetry_equiv_pos_as_xyz
1 'x+1/2, -y+1/2, -z+3/4'
2 '-x+1/2, y+1/2, -z+1/4'
3 '-y, -x, -z+1/2'
4 'y, x, -z'
5 'y+1/2, -x+1/2, z+3/4'
6 '-y+1/2, x+1/2, z+1/4'
7 '-x, -y, z+1/2'
8 'x, y, z'
loop_
_atom_type_symbol
_atom_type_oxidation_number
Zr0+ 0
Si0+ 0
loop_
_atom_site_label
_atom_site_type_symbol
_atom_site_symmetry_multiplicity
_atom_site_Wyckoff_symbol
_atom_site_fract_x
_atom_site_fract_y
_atom_site_fract_z
_atom_site_B_iso_or_equiv
_atom_site_occupancy
_atom_site_attached_hydrogens
Zr1 Zr0+ 8 b 0.9997(1) 0.1454(1) 0.6240(1) -.1 1. 0
Zr2 Zr0+ 8 b 0.9969(1) 0.3491(1) 0.2153(1) -.1 1. 0
Zr3 Zr0+ 4 a 0.1743(1) 0.1743(1) 0 -.1 1. 0
Si1 Si0+ 8 b 0.0513(4) 0.2982(4) 0.8109(4) -.1 1. 0
Si2 Si0+ 8 b 0.2949(4) 0.3590(4) 0.675(24) -.1 1. 0
#End of TTdata_20357-ICSD