
#(C) 2018 by FIZ Karlsruhe - Leibniz Institute for Information Infrastructure.  All rights reserved.
data_262772-ICSD
_database_code_ICSD 262772
_audit_creation_date 2012-08-01
_chemical_name_systematic 'Silicon oxide (60/120)'
_chemical_formula_structural '(Si O2)60'
_chemical_formula_sum 'O120 Si60'
_exptl_crystal_density_diffrn 1.63
_publ_section_title 'A pure silica chiral polymorph with helical pores'
loop_
_citation_id
_citation_journal_full
_citation_year
_citation_journal_volume
_citation_page_first
_citation_page_last
_citation_journal_id_ASTM
primary 'Angewandte Chemie, International Edition' 2012 51 3854 3856 ACIEF5
loop_
_publ_author_name
'Rojas, A.'
'Camblor, M.A.'
_cell_length_a 11.93558(12)
_cell_length_b 11.93558(12)
_cell_length_c 29.7500(4)
_cell_angle_alpha 90.
_cell_angle_beta 90.
_cell_angle_gamma 120.
_cell_volume 3670.33
_cell_formula_units_Z 1
_symmetry_space_group_name_H-M 'P 61 2 2'
_symmetry_Int_Tables_number 178
_refine_ls_R_factor_all 0.0729
loop_
_symmetry_equiv_pos_site_id
_symmetry_equiv_pos_as_xyz
1 'x, x-y, -z'
2 '-x+y, y, -z+1/2'
3 '-y, -x, -z'
4 '-x, -x+y, -z+2/3'
5 'x-y, -y, -z'
6 'y, x, -z+1/3'
7 'x-y, x, z'
8 'y, -x+y, z'
9 '-x, -y, z+1/2'
10 '-x+y, -x, z+2/3'
11 '-y, x-y, z+1/3'
12 'x, y, z'
loop_
_atom_type_symbol
_atom_type_oxidation_number
Si4+ 4
O2- -2
loop_
_atom_site_label
_atom_site_type_symbol
_atom_site_symmetry_multiplicity
_atom_site_Wyckoff_symbol
_atom_site_fract_x
_atom_site_fract_y
_atom_site_fract_z
_atom_site_B_iso_or_equiv
_atom_site_occupancy
_atom_site_attached_hydrogens
Si1 Si4+ 12 c 0.69766(34) 0.37606(35) 0.03328(12) 0.0262(12) 1. 0
Si2 Si4+ 12 c 0.5310(4) 0.4140(4) 0.96723(11) 0.0288(14) 1. 0
Si3 Si4+ 12 c 0.2997(4) 0.3964(4) 0.85103(11) 0.0240(12) 1. 0
Si4 Si4+ 12 c 0.2471(4) 0.3337(4) 0.95162(12) 0.0241(12) 1. 0
Si5 Si4+ 12 c 0.97003(34) 0.12102(35) 0.96633(11) 0.0204(12) 1. 0
O1 O2- 6 a 0.9204(8) 0 0 0.0187(32) 1. 0
O2 O2- 12 c 0.3425(7) 0.5813(7) 0.33297(21) 0.0187(22) 1. 0
O3 O2- 12 c 0.1236(6) 0.2135(6) 0.97211(19) 0.0170(22) 1. 0
O4 O2- 6 b 0.9313(5) 0.8625(9) 0.25 0.0196(34) 1. 0
O5 O2- 12 c 0.9034(6) 0.2073(6) 0.97909(21) 0.0116(23) 1. 0
O6 O2- 6 b 0.3257(5) 0.6515(10) 0.25 0.0311(35) 1. 0
O7 O2- 12 c 0.3769(6) 0.3318(6) 0.96732(20) 0.0240(26) 1. 0
O8 O2- 12 c 0.7746(7) 0.3089(7) 0.01388(24) 0.0342(27) 1. 0
O9 O2- 12 c 0.7911(7) 0.5281(7) 0.03329(22) 0.0261(27) 1. 0
O10 O2- 12 c 0.2400(6) 0.3279(7) 0.89754(24) 0.0372(26) 1. 0
O11 O2- 12 c 0.5809(7) 0.5576(7) 0.98408(23) 0.0279(29) 1. 0
O12 O2- 6 b 0.5816(4) 0.1632(9) 0.25 0.021(4) 1. 0
#End of TTdata_262772-ICSD