
#(C) 2017 by FIZ Karlsruhe - Leibniz Institute for Information Infrastructure.  All rights reserved.
data_64771-ICSD
_database_code_ICSD 64771
_audit_creation_date 1997-11-10
_audit_update_record 2007-04-01
_chemical_name_systematic 'Dihydrogen oxide - Ice III'
_chemical_formula_structural 'H2 O'
_chemical_formula_sum 'H2 O1'
_chemical_name_structure_type H2O(III,IX)
_chemical_name_mineral 'Ice III'
_exptl_crystal_density_diffrn 1.16
_cell_measurement_temperature 98.
_publ_section_title 'Structure of ice III'
loop_
_citation_id
_citation_journal_full
_citation_year
_citation_journal_volume
_citation_page_first
_citation_page_last
_citation_journal_id_ASTM
primary 'Acta Crystallographica B (24,1968-38,1982)' 1968 24 1317 1327 ACBCAR
loop_
_publ_author_name
'Kamb, B.'
'Prakash, A.'
_cell_length_a 6.73(1)
_cell_length_b 6.73(1)
_cell_length_c 6.83(1)
_cell_angle_alpha 90.
_cell_angle_beta 90.
_cell_angle_gamma 90.
_cell_volume 309.35
_cell_formula_units_Z 12
_symmetry_space_group_name_H-M 'P 41 21 2'
_symmetry_Int_Tables_number 92
_refine_ls_R_factor_all 0.057
loop_
_symmetry_equiv_pos_site_id
_symmetry_equiv_pos_as_xyz
1 'x+1/2, -y+1/2, -z+3/4'
2 '-x+1/2, y+1/2, -z+1/4'
3 '-y, -x, -z+1/2'
4 'y, x, -z'
5 'y+1/2, -x+1/2, z+3/4'
6 '-y+1/2, x+1/2, z+1/4'
7 '-x, -y, z+1/2'
8 'x, y, z'
loop_
_atom_type_symbol
_atom_type_oxidation_number
O2- -2
H1+ 1
loop_
_atom_site_label
_atom_site_type_symbol
_atom_site_symmetry_multiplicity
_atom_site_Wyckoff_symbol
_atom_site_fract_x
_atom_site_fract_y
_atom_site_fract_z
_atom_site_B_iso_or_equiv
_atom_site_occupancy
_atom_site_attached_hydrogens
O1 O2- 8 b 0.1096(4) 0.3016(4) 0.2873(4) . 1. 0
O2 O2- 4 a 0.3932(4) 0.3932(4) 0 . 1. 0
H1 H1+ 8 b -.003(8) 0.322(4) 0.215(6) . 1. 0
H2 H1+ 8 b 0.107(5) 0.162(5) 0.288(7) . 1. 0
H3 H1+ 8 b 0.296(5) 0.354(5) 0.095(6) . 1. 0
#End of TTdata_64771-ICSD