
#(C) 2017 by FIZ Karlsruhe - Leibniz Institute for Information Infrastructure.  All rights reserved.
data_84160-ICSD
_database_code_ICSD 84160
_audit_creation_date 1999-01-19
_audit_update_record 2006-04-01
_chemical_name_systematic 'Tungsten oxide - epsilon'
_chemical_formula_structural 'W O3'
_chemical_formula_sum 'O3 W1'
_chemical_name_structure_type WO3(mP16)
_exptl_crystal_density_diffrn 7.38
_cell_measurement_temperature 190.
_publ_section_title
'Crystal structure and paramagnetic behaviour of epsilon-(W O3-x)'
loop_
_citation_id
_citation_journal_full
_citation_year
_citation_journal_volume
_citation_page_first
_citation_page_last
_citation_journal_id_ASTM
primary 'Journal of Physics: Condensed Matter' 1997 9 6563 6577 JCOMEL
loop_
_publ_author_name
'Salje, E.K.H.'
'Rehmann, S.'
'Pobell, F.'
'Morris, D.'
'Knight, K.S.'
'Herrmannsdoerfer, T.'
'Dove, M.T.'
_cell_length_a 5.27748(1)
_cell_length_b 5.15977(1)
_cell_length_c 7.67120(1)
_cell_angle_alpha 90.
_cell_angle_beta 91.7070(2)
_cell_angle_gamma 90.
_cell_volume 208.8
_cell_formula_units_Z 4
_symmetry_space_group_name_H-M 'P 1 c 1'
_symmetry_Int_Tables_number 7
_refine_ls_R_factor_all 0.09
loop_
_symmetry_equiv_pos_site_id
_symmetry_equiv_pos_as_xyz
1 'x, -y, z+1/2'
2 'x, y, z'
loop_
_atom_type_symbol
_atom_type_oxidation_number
W6+ 6
O2- -2
loop_
_atom_site_label
_atom_site_type_symbol
_atom_site_symmetry_multiplicity
_atom_site_Wyckoff_symbol
_atom_site_fract_x
_atom_site_fract_y
_atom_site_fract_z
_atom_site_B_iso_or_equiv
_atom_site_occupancy
_atom_site_attached_hydrogens
W1 W6+ 2 a -.0120(5) -.016(1) 0.6748(2) 0.06(3) 1. 0
W2 W6+ 2 a 0.5 0.474(1) 0.75 0.06(3) 1. 0
O1 O2- 2 a 0.494(2) 0.583(1) -.029(1) 0.37(2) 1. 0
O2 O2- 2 a 0.208(2) 0.296(1) 0.178(1) 0.37(2) 1. 0
O3 O2- 2 a 0.278(2) 0.779(1) 0.253(1) 0.37(2) 1. 0
O4 O2- 2 a 0.693(2) 0.202(1) 0.176(1) 0.37(2) 1. 0
O5 O2- 2 a 0.782(2) 0.717(1) 0.252(1) 0.37(2) 1. 0
O6 O2- 2 a -.011(2) 0.067(1) 0.456(1) 0.37(2) 1. 0
#End of TTdata_84160-ICSD