
#(C) 2018 by FIZ Karlsruhe - Leibniz Institute for Information Infrastructure.  All rights reserved.
data_39784-ICSD
_database_code_ICSD 39784
_audit_creation_date 1995-01-10
_audit_update_record 2010-02-01
_chemical_name_systematic 'Titanium bromide - alpha'
_chemical_formula_structural 'Ti Br3'
_chemical_formula_sum 'Br3 Ti1'
_chemical_name_structure_type EuAs3
_exptl_crystal_density_diffrn 4.28
_cell_measurement_temperature 157.
_publ_section_title
'Crystal structure of alpha - Ti Br3 low temperature modification'
loop_
_citation_id
_citation_journal_full
_citation_year
_citation_journal_volume
_citation_page_first
_citation_page_last
_citation_journal_id_ASTM
primary 'Zhurnal Neorganicheskoi Khimii' 1994 39 374 377 ZNOKAQ
loop_
_publ_author_name
'Troyanov, S.I.'
'Snigireva, E.M.'
'Pisarevskii, A.P.'
'Yanovskii, A.I.'
'Struchkov, Yu.T.'
_cell_length_a 6.424(2)
_cell_length_b 6.438(2)
_cell_length_c 7.236(3)
_cell_angle_alpha 63.73(2)
_cell_angle_beta 63.81(2)
_cell_angle_gamma 60.12(2)
_cell_volume 223.1
_cell_formula_units_Z 2
_symmetry_space_group_name_H-M 'P -1'
_symmetry_Int_Tables_number 2
_refine_ls_R_factor_all 0.081
loop_
_symmetry_equiv_pos_site_id
_symmetry_equiv_pos_as_xyz
1 '-x, -y, -z'
2 'x, y, z'
loop_
_atom_type_symbol
_atom_type_oxidation_number
Ti3+ 3
Br1- -1
loop_
_atom_site_label
_atom_site_type_symbol
_atom_site_symmetry_multiplicity
_atom_site_Wyckoff_symbol
_atom_site_fract_x
_atom_site_fract_y
_atom_site_fract_z
_atom_site_B_iso_or_equiv
_atom_site_occupancy
_atom_site_attached_hydrogens
Ti1 Ti3+ 2 i 0.3370(9) 0.8255(11) -.0014(13) 1.6(1) 1. 0
Br1 Br1- 2 i 0.2616(4) 0.4197(5) 0.2432(6) 1.5(1) 1. 0
Br2 Br1- 2 i 0.5758(4) 0.7632(5) 0.2417(4) 1.1(1) 1. 0
Br3 Br1- 2 i 0.0811(4) 0.9236(5) -.2417(6) 1.4(1) 1. 0
#End of TTdata_39784-ICSD