
#(C) 2017 by FIZ Karlsruhe - Leibniz Institute for Information Infrastructure.  All rights reserved.
data_162253-ICSD
_database_code_ICSD 162253
_audit_creation_date 2009-08-01
_chemical_name_systematic 'Calcium - IV, HP'
_chemical_formula_structural Ca
_chemical_formula_sum Ca1
_exptl_crystal_density_diffrn 5.76
_cell_measurement_pressure 130000000.
_publ_section_title 'Crystal structures of calcium IV and V under high pressure'
loop_
_citation_id
_citation_journal_full
_citation_year
_citation_journal_volume
_citation_page_first
_citation_page_last
_citation_journal_id_ASTM
primary 'Physical Review Letters' 2008 101 095503-1 095503-4 PRLTAO
loop_
_publ_author_name
'Fujihisa, H.'
'Nakamoto, Y.'
'Shimizu, K.'
'Yabuuchi, T.'
'Gotoh, Y.'
_cell_length_a 3.209(1)
_cell_length_b 3.209(1)
_cell_length_c 8.976(1)
_cell_angle_alpha 90.
_cell_angle_beta 90.
_cell_angle_gamma 90.
_cell_volume 92.43
_cell_formula_units_Z 8
_symmetry_space_group_name_H-M 'P 41 21 2'
_symmetry_Int_Tables_number 92
_refine_ls_R_factor_all 0.0066
loop_
_symmetry_equiv_pos_site_id
_symmetry_equiv_pos_as_xyz
1 'x+1/2, -y+1/2, -z+3/4'
2 '-x+1/2, y+1/2, -z+1/4'
3 '-y, -x, -z+1/2'
4 'y, x, -z'
5 'y+1/2, -x+1/2, z+3/4'
6 '-y+1/2, x+1/2, z+1/4'
7 '-x, -y, z+1/2'
8 'x, y, z'
loop_
_atom_type_symbol
_atom_type_oxidation_number
Ca0+ 0
loop_
_atom_site_label
_atom_site_type_symbol
_atom_site_symmetry_multiplicity
_atom_site_Wyckoff_symbol
_atom_site_fract_x
_atom_site_fract_y
_atom_site_fract_z
_atom_site_B_iso_or_equiv
_atom_site_occupancy
_atom_site_attached_hydrogens
Ca1 Ca0+ 8 b 0.527(1) 0.175(1) 0.096(1) . 1. 0
#End of TTdata_162253-ICSD