
#(C) 2018 by FIZ Karlsruhe - Leibniz Institute for Information Infrastructure.  All rights reserved.
data_31154-ICSD
_database_code_ICSD 31154
_audit_creation_date 1980-01-01
_audit_update_record 2012-08-01
_chemical_name_systematic 'Lead zirconate'
_chemical_formula_structural 'Pb (Zr O3)'
_chemical_formula_sum 'O3 Pb1 Zr1'
_chemical_name_structure_type Perovskite-PbZrO3(Pba2)
_exptl_crystal_density_diffrn 8.09
_publ_section_title

;
X-Ray and neutron diffraction study of antiferroelectric lead zirconate, Pb Zr
O3
;
loop_
_citation_id
_citation_journal_full
_citation_year
_citation_journal_volume
_citation_page_first
_citation_page_last
_citation_journal_id_ASTM
primary 'Physical Review' 1957 105 849 856 PHRVAO
loop_
_publ_author_name
'Jona, F.'
'Shirane, G.'
'Mazzi, F.'
'Pepinsky, R.'
_cell_length_a 5.884
_cell_length_b 11.768
_cell_length_c 8.22
_cell_angle_alpha 90.
_cell_angle_beta 90.
_cell_angle_gamma 90.
_cell_volume 569.18
_cell_formula_units_Z 8
_symmetry_space_group_name_H-M 'P b a 2'
_symmetry_Int_Tables_number 32
loop_
_symmetry_equiv_pos_site_id
_symmetry_equiv_pos_as_xyz
1 'x+1/2, -y+1/2, z'
2 '-x+1/2, y+1/2, z'
3 '-x, -y, z'
4 'x, y, z'
loop_
_atom_type_symbol
_atom_type_oxidation_number
Pb2+ 2
Zr4+ 4
O2- -2
loop_
_atom_site_label
_atom_site_type_symbol
_atom_site_symmetry_multiplicity
_atom_site_Wyckoff_symbol
_atom_site_fract_x
_atom_site_fract_y
_atom_site_fract_z
_atom_site_B_iso_or_equiv
_atom_site_occupancy
_atom_site_attached_hydrogens
Pb1 Pb2+ 4 c 0.706 0.127 0 . 1. 0
Pb2 Pb2+ 4 c 0.706 0.127 0.5 . 1. 0
Zr1 Zr4+ 4 c 0.243 0.124 0.25 . 1. 0
Zr2 Zr4+ 4 c 0.243 0.124 0.75 . 1. 0
O1 O2- 4 c 0.27 0.15 0.98 . 1. 0
O2 O2- 4 c 0.27 0.15 0.48 . 1. 0
O3 O2- 4 c 0.04 0.27 0.3 . 1. 0
O4 O2- 4 c 0.04 0.27 0.75 . 1. 0
O5 O2- 2 b 0 0.5 0.25 . 1. 0
O6 O2- 2 b 0 0.5 0.8 . 1. 0
O7 O2- 2 a 0 0 0.25 . 1. 0
O8 O2- 2 a 0 0 0.8 . 1. 0
#End of TTdata_31154-ICSD