
#(C) 2018 by FIZ Karlsruhe - Leibniz Institute for Information Infrastructure.  All rights reserved.
data_183320-ICSD
_database_code_ICSD 183320
_audit_creation_date 2012-08-01
_chemical_name_systematic 'Molybdenum copper aluminium (1/2/7.92)'
_chemical_formula_structural 'Mo Cu2 Al7.920'
_chemical_formula_sum 'Al7.92 Cu2 Mo1'
_exptl_crystal_density_diffrn 4.39
_cell_measurement_temperature 293.
_publ_section_title

;
Crystal structures and hardness of novel compounds: hexagonal Mo (Cux Al1-x)6
Al4, Mo Cu2 Al8-x and orthorhombic (Mo, W, Re) Ni2-x Al8+x
;
loop_
_citation_id
_citation_journal_full
_citation_year
_citation_journal_volume
_citation_page_first
_citation_page_last
_citation_journal_id_ASTM
primary Intermetallics 2012 23 187 198 IERME5
loop_
_publ_author_name
'Khan, A.U.'
'Grytsiv, A.'
'Rogl, P.'
'Giester, G.'
_cell_length_a 8.6769(1)
_cell_length_b 8.6769(1)
_cell_length_c 15.2149(2)
_cell_angle_alpha 90.
_cell_angle_beta 90.
_cell_angle_gamma 120.
_cell_volume 992.04
_cell_formula_units_Z 6
_symmetry_space_group_name_H-M 'P 6'
_symmetry_Int_Tables_number 168
_refine_ls_R_factor_all 0.049
loop_
_symmetry_equiv_pos_site_id
_symmetry_equiv_pos_as_xyz
1 'x-y, x, z'
2 'y, -x+y, z'
3 '-x, -y, z'
4 '-x+y, -x, z'
5 '-y, x-y, z'
6 'x, y, z'
loop_
_atom_type_symbol
_atom_type_oxidation_number
Mo0+ 0
Al0+ 0
Cu0+ 0
Al0+ 0
Cu0+ 0
Al0+ 0
loop_
_atom_site_label
_atom_site_type_symbol
_atom_site_symmetry_multiplicity
_atom_site_Wyckoff_symbol
_atom_site_fract_x
_atom_site_fract_y
_atom_site_fract_z
_atom_site_B_iso_or_equiv
_atom_site_occupancy
_atom_site_attached_hydrogens
Mo1 Mo0+ 1 a 0 0 0.001(9) 0.60(2) 1. 0
Mo2 Mo0+ 1 a 0 0 0.49(2) 0.60(2) 1. 0
Mo3 Mo0+ 2 b 0.3333 0.6667 0.49(2) 0.60(2) 1. 0
Mo4 Mo0+ 2 b 0.3333 0.6667 0.99(2) 0.60(2) 1. 0
Al1 Al0+ 6 d 0.000(3) 0.353(2) 0.74(2) 0.78(3) 1. 0
Al2 Al0+ 6 d 0.007(3) 0.340(1) 0.24(2) 0.78(3) 1. 0
Al3 Al0+ 1 a 0 0 0.16(2) 0.78(3) 1. 0
Al4 Al0+ 1 a 0 0 0.32(2) 0.78(3) 1. 0
Al5 Al0+ 1 a 0 0 0.82(2) 0.78(3) 1. 0
Al6 Al0+ 1 a 0 0 0.65(2) 0.78(3) 0.52(1) 0
Al7 Al0+ 2 b 0.3333 0.6667 0.66(2) 0.78(3) 1. 0
Al8 Al0+ 2 b 0.3333 0.6667 0.82(2) 0.78(3) 1. 0
Al9 Al0+ 2 b 0.3333 0.6667 0.32(2) 0.78(3) 1. 0
Al10 Al0+ 2 b 0.3333 0.6667 0.15(2) 0.78(3) 1. 0
Al11 Al0+ 6 d 0.328(1) 0.164(2) 0.87(2) 0.78(3) 1. 0
Al12 Al0+ 6 d 0.341(1) 0.175(2) 0.08(2) 0.78(3) 1. 0
Cu1 Cu0+ 6 d 0.3356(5) 0.176(1) 0.59(2) 0.90(5) 1. 0
Al13 Al0+ 6 d 0.347(1) 0.179(2) 0.42(2) 0.78(3) 1. 0
Cu2 Cu0+ 3 c 0.5 0 0.10(2) 0.90(5) 1. 0
Cu3 Cu0+ 3 c 0.5 0 0.38(2) 0.90(5) 1. 0
Al14 Al0+ 3 c 0.5 0 0.55(2) 0.78(3) 1. 0
Al15 Al0+ 3 c 0.5 0 0.94(2) 0.78(3) 1. 0
#End of TTdata_183320-ICSD