
#(C) 2018 by FIZ Karlsruhe - Leibniz Institute for Information Infrastructure.  All rights reserved.
data_90382-ICSD
_database_code_ICSD 90382
_audit_creation_date 2002-04-01
_audit_update_record 2014-08-01
_chemical_name_systematic 'Cerium telluride (1/2)'
_chemical_formula_structural 'Ce Te2'
_chemical_formula_sum 'Ce1 Te2'
_chemical_name_structure_type CeTe2
_exptl_crystal_density_diffrn 7.12
_publ_section_title 'Crystal structure and magnetic properties of Ce Te2'
loop_
_citation_id
_citation_journal_full
_citation_year
_citation_journal_volume
_citation_page_first
_citation_page_last
_citation_journal_id_ASTM
primary 'Journal of Alloys and Compounds' 2000 307 101 110 JALCEU
loop_
_publ_author_name
'Stoewe, K.'
_cell_length_a 8.9975(5)
_cell_length_b 8.9975(5)
_cell_length_c 18.2120(10)
_cell_angle_alpha 90.
_cell_angle_beta 90.
_cell_angle_gamma 90.
_cell_volume 1474.35
_cell_formula_units_Z 16
_symmetry_space_group_name_H-M 'P 4'
_symmetry_Int_Tables_number 75
_refine_ls_R_factor_all 0.074
loop_
_symmetry_equiv_pos_site_id
_symmetry_equiv_pos_as_xyz
1 '-y, x, z'
2 'y, -x, z'
3 '-x, -y, z'
4 'x, y, z'
loop_
_atom_type_symbol
_atom_type_oxidation_number
Te1- -1.5
Ce3+ 3
loop_
_atom_site_label
_atom_site_type_symbol
_atom_site_symmetry_multiplicity
_atom_site_Wyckoff_symbol
_atom_site_fract_x
_atom_site_fract_y
_atom_site_fract_z
_atom_site_B_iso_or_equiv
_atom_site_occupancy
_atom_site_attached_hydrogens
Te1 Te1- 4 d 0.2524(1) 0.9914(1) 0.9996(1) . 0.866(2) 0
Te2 Te1- 4 d 0.2218(9) 0.0157(9) 0.9972(7) . 0.134(2) 0
Te3 Te1- 4 d 0.5081(2) 0.2482(1) 0.9988(1) . 0.866(2) 0
Te4 Te1- 4 d 0.4778(9) 0.2902(8) 0.0026(6) . 0.134(2) 0
Te5 Te1- 4 d 0.5201(3) 0.2461(3) 0.5001(2) . 0.446(1) 0
Te6 Te1- 4 d 0.4950(4) 0.2640(3) 0.4971(3) . 0.377(1) 0
Te7 Te1- 4 d 0.4982(7) 0.2245(6) 0.5048(5) . 0.177(2) 0
Te8 Te1- 4 d 0.2602(3) 0.9976(4) 0.4975(2) . 0.446(1) 0
Te9 Te1- 4 d 0.2433(4) 0.9806(4) 0.4996(3) . 0.377(1) 0
Te10 Te1- 4 d 0.2312(7) 0.0133(7) 0.5102(4) . 0.177(1) 0
Te11 Te1- 1 a 0 0 0.3162(1) . 1. 0
Te12 Te1- 1 a 0 0 0.8160(1) . 1. 0
Te13 Te1- 1 b 0.5 0.5 0.3164(1) . 1. 0
Te14 Te1- 1 b 0.5 0.5 0.8163(1) . 1. 0
Te15 Te1- 2 c 0 0.5 0.3167(1) . 1. 0
Te16 Te1- 2 c 0 0.5 0.8164(1) . 1. 0
Te17 Te1- 4 d 0.2508(1) 0.2493(1) 0.1835(1) . 1. 0
Te18 Te1- 4 d 0.2505(1) 0.2494(1) 0.6836(1) . 1. 0
Ce1 Ce3+ 1 a 0 0 0.1356(1) . 1. 0
Ce2 Ce3+ 1 a 0 0 0.6360(1) . 1. 0
Ce3 Ce3+ 1 b 0.5 0.5 0.1360(1) . 1. 0
Ce4 Ce3+ 1 b 0.5 0.5 0.6364(1) . 1. 0
Ce5 Ce3+ 2 c 0 0.5 0.1359(1) . 1. 0
Ce6 Ce3+ 2 c 0 0.5 0.6358(1) . 1. 0
Ce7 Ce3+ 4 d 0.2523(1) 0.2473(1) 0.3623(1) . 1. 0
Ce8 Ce3+ 4 d 0.2526(1) 0.2479(1) 0.8621(1) . 1. 0
loop_
_atom_site_aniso_label
_atom_site_aniso_type_symbol
_atom_site_aniso_U_11
_atom_site_aniso_U_22
_atom_site_aniso_U_33
_atom_site_aniso_U_12
_atom_site_aniso_U_13
_atom_site_aniso_U_23
Te1 Te1- 0.0178(4) 0.0192(4) 0.0109(4) 0.0021(4) -.0017(5) -.0018(6)
Te2 Te1- 0.0175(7) 0.0192(7) 0.0116(7) 0.0020(7) -.0018(8) -.0019(8)
Te3 Te1- 0.0176(4) 0.0180(5) 0.0108(4) 0.0022(4) 0.0034(6) -.0026(6)
Te4 Te1- 0.0177(7) 0.0179(7) 0.0117(7) 0.0018(7) 0.0033(7) -.0022(7)
Te5 Te1- 0.0117(5) 0.0118(5) 0.0090(5) 0.0018(4) 0.0015(5) 0.0017(5)
Te6 Te1- 0.0115(5) 0.0115(5) 0.0095(5) 0.0021(5) 0.0017(5) 0.0020(5)
Te7 Te1- 0.0115(5) 0.0115(5) 0.0094(5) 0.0018(5) 0.0015(5) 0.0017(5)
Te8 Te1- 0.0132(5) 0.0121(5) 0.0071(5) -.0029(5) 0.0021(5) -.0038(5)
Te9 Te1- 0.0135(5) 0.0120(5) 0.0068(5) -.0030(5) 0.0015(5) -.0038(5)
Te10 Te1- 0.0133(5) 0.0121(5) 0.0077(5) -.0026(5) 0.0018(5) -.0036(5)
Te11 Te1- 0.0093(5) 0.0093(5) 0.0120(9) 0 0 0
Te12 Te1- 0.0085(5) 0.0085(5) 0.0146(11) 0 0 0
Te13 Te1- 0.0086(5) 0.0086(5) 0.0155(11) 0 0 0
Te14 Te1- 0.0102(6) 0.0102(6) 0.0107(11) 0 0 0
Te15 Te1- 0.0096(7) 0.0089(7) 0.0138(9) -.0003(4) 0 0
Te16 Te1- 0.0089(7) 0.0110(7) 0.0114(9) -.0004(4) 0 0
Te17 Te1- 0.0170(6) 0.0165(7) 0.0107(5) 0.0002(7) -.0002(4) 0.0001(4)
Te18 Te1- 0.0176(7) 0.0178(8) 0.0074(5) -.0008(7) -.0003(5) -.0008(4)
Ce1 Ce3+ 0.0168(5) 0.0168(5) 0.0095(9) 0 0 0
Ce2 Ce3+ 0.0159(5) 0.0159(5) 0.0105(10) 0 0 0
Ce3 Ce3+ 0.0185(5) 0.0185(5) 0.0119(9) 0 0 0
Ce4 Ce3+ 0.0176(6) 0.0176(6) 0.011(1) 0 0 0
Ce5 Ce3+ 0.0164(7) 0.0170(7) 0.0104(7) -.0017(4) 0 0
Ce6 Ce3+ 0.0168(7) 0.0190(8) 0.0080(8) -.0026(4) 0 0
Ce7 Ce3+ 0.0136(5) 0.0132(5) 0.0187(5) 0.0013(6) 0.0003(4) -.0030(4)
Ce8 Ce3+ 0.0142(6) 0.0145(6) 0.0164(5) 0.0009(6) -.0005(4) -.0012(4)
#End of TTdata_90382-ICSD