
#(C) 2017 by FIZ Karlsruhe - Leibniz Institute for Information Infrastructure.  All rights reserved.
data_15021-ICSD
_database_code_ICSD 15021
_audit_creation_date 1980-01-01
_audit_update_record 2012-08-01
_chemical_name_systematic 'Thallium phosphide (1/5)'
_chemical_formula_structural 'Tl P5'
_chemical_formula_sum 'P5 Tl1'
_chemical_name_structure_type CsIO4
_exptl_crystal_density_diffrn 4.4
_publ_section_title 'The crystal structure of Tl P5'
loop_
_citation_id
_citation_journal_full
_citation_year
_citation_journal_volume
_citation_page_first
_citation_page_last
_citation_journal_id_ASTM
primary 'Acta Chemica Scandinavica (1-27,1973-42,1988)' 1971 25 1327 1337 ACSAA4
loop_
_publ_author_name
'Olofsson, O.'
'Gullman, J.'
_cell_length_a 6.4650(7)
_cell_length_b 6.9249(6)
_cell_length_c 12.118(1)
_cell_angle_alpha 90.
_cell_angle_beta 90.
_cell_angle_gamma 90.
_cell_volume 542.52
_cell_formula_units_Z 4
_symmetry_space_group_name_H-M 'P m c 21'
_symmetry_Int_Tables_number 26
_refine_ls_R_factor_all 0.102
loop_
_symmetry_equiv_pos_site_id
_symmetry_equiv_pos_as_xyz
1 'x, -y, z+1/2'
2 '-x, -y, z+1/2'
3 '-x, y, z'
4 'x, y, z'
loop_
_atom_type_symbol
_atom_type_oxidation_number
Tl1+ 1
P0+ -0.2
loop_
_atom_site_label
_atom_site_type_symbol
_atom_site_symmetry_multiplicity
_atom_site_Wyckoff_symbol
_atom_site_fract_x
_atom_site_fract_y
_atom_site_fract_z
_atom_site_B_iso_or_equiv
_atom_site_occupancy
_atom_site_attached_hydrogens
Tl1 Tl1+ 2 a 0 0.2214(3) 0 . 1. 0
Tl2 Tl1+ 2 b 0.5 -.0141(3) -.1591(2) . 1. 0
P1 P0+ 4 c 0.2511(10) 0.2146(10) -.3871(5) 0.43 1. 0
P2 P0+ 4 c 0.2510(12) 0.4037(10) -.2382(5) 0.37 1. 0
P3 P0+ 2 a 0 0.6146(13) -.2722(7) 0.22 1. 0
P4 P0+ 2 a 0 0.8286(17) -.1460(9) 0.94 1. 0
P5 P0+ 2 a 0 0.6565(12) 0.0087(6) -.38 1. 0
P6 P0+ 2 b 0.5 0.3372(13) -.4911(9) 0.54 1. 0
P7 P0+ 2 b 0.5 0.6120(15) -.2818(8) 0.64 1. 0
P8 P0+ 2 b 0.5 0.6452(14) -.4562(8) 0.6 1. 0
loop_
_atom_site_aniso_label
_atom_site_aniso_type_symbol
_atom_site_aniso_beta_11
_atom_site_aniso_beta_22
_atom_site_aniso_beta_33
_atom_site_aniso_beta_12
_atom_site_aniso_beta_13
_atom_site_aniso_beta_23
Tl1 Tl1+ 0.0157(4) 0.0022(8) 0.0018(1) 0 0 0.0003(2)
Tl2 Tl1+ 0.0197(5) 0.0025(9) 0.0018(1) 0 0 -.0021(3)
#End of TTdata_15021-ICSD