
#(C) 2017 by FIZ Karlsruhe - Leibniz Institute for Information Infrastructure.  All rights reserved.
data_413174-ICSD
_database_code_ICSD 413174
_audit_creation_date 2005-04-01
_chemical_name_systematic 'Tellurium silicide (9.52/17.48)'
_chemical_formula_structural 'Te7 (Te2.52 Si5.48) Si12'
_chemical_formula_sum 'Si17.48 Te9.52'
_exptl_crystal_density_diffrn 4.8
_publ_section_title

;
High pressure synthesis and structure of a novel clathrate-type compound:
Te7+x Si20-x (x = 2.5)
;
loop_
_citation_id
_citation_journal_full
_citation_year
_citation_journal_volume
_citation_page_first
_citation_page_last
_citation_journal_id_ASTM
primary 'Solid State Sciences' 2003 5 1193 1200 SSSCFJ
loop_
_publ_author_name
'Jaussaud, N.'
'Pouchard, M.'
'Goglio, G.'
'Cros, C.'
'Ammar, A.'
'Weill, F.'
'Gravereau, P.'
_cell_length_a 21.136(2)
_cell_length_b 21.136(2)
_cell_length_c 21.136(2)
_cell_angle_alpha 90
_cell_angle_beta 90
_cell_angle_gamma 90
_cell_volume 9442.1
_cell_formula_units_Z 16
_symmetry_space_group_name_H-M 'F d -3 c Z'
_symmetry_Int_Tables_number 228
_refine_ls_R_factor_all 0.036
loop_
_symmetry_equiv_pos_site_id
_symmetry_equiv_pos_as_xyz
1 '-z, y+3/4, x+1/4'
2 'z+3/4, -y, x+1/4'
3 'z+3/4, y+3/4, -x+1/2'
4 '-z, -y, -x+1/2'
5 'y+3/4, x+3/4, -z+1/2'
6 '-y, x+3/4, z+1/4'
7 'y+3/4, -x, z+1/4'
8 '-y, -x, -z+1/2'
9 'x+3/4, -z, y+1/4'
10 'x+3/4, z+3/4, -y+1/2'
11 '-x, z+3/4, y+1/4'
12 '-x, -z, -y+1/2'
13 'z, -y+1/4, -x+3/4'
14 '-z+1/4, y, -x+3/4'
15 '-z+1/4, -y+1/4, x+1/2'
16 'z, y, x+1/2'
17 '-y+1/4, -x+1/4, z+1/2'
18 'y, -x+1/4, -z+3/4'
19 '-y+1/4, x, -z+3/4'
20 'y, x, z+1/2'
21 '-x+1/4, z, -y+3/4'
22 '-x+1/4, -z+1/4, y+1/2'
23 'x, -z+1/4, -y+3/4'
24 'x, z, y+1/2'
25 '-z, x+3/4, y+3/4'
26 'z+3/4, x+3/4, -y'
27 'z+3/4, -x, y+3/4'
28 '-z, -x, -y'
29 'y+3/4, -z, x+3/4'
30 '-y, z+3/4, x+3/4'
31 'y+3/4, z+3/4, -x'
32 '-y, -z, -x'
33 'x+3/4, y+3/4, -z'
34 'x+3/4, -y, z+3/4'
35 '-x, y+3/4, z+3/4'
36 '-x, -y, -z'
37 'z, -x+1/4, -y+1/4'
38 '-z+1/4, -x+1/4, y'
39 '-z+1/4, x, -y+1/4'
40 'z, x, y'
41 '-y+1/4, z, -x+1/4'
42 'y, -z+1/4, -x+1/4'
43 '-y+1/4, -z+1/4, x'
44 'y, z, x'
45 '-x+1/4, -y+1/4, z'
46 '-x+1/4, y, -z+1/4'
47 'x, -y+1/4, -z+1/4'
48 'x, y, z'
49 '-z, y+1/4, x+3/4'
50 'z+3/4, -y+1/2, x+3/4'
51 'z+3/4, y+1/4, -x'
52 '-z, -y+1/2, -x'
53 'y+3/4, x+1/4, -z'
54 '-y, x+1/4, z+3/4'
55 'y+3/4, -x+1/2, z+3/4'
56 '-y, -x+1/2, -z'
57 'x+3/4, -z+1/2, y+3/4'
58 'x+3/4, z+1/4, -y'
59 '-x, z+1/4, y+3/4'
60 '-x, -z+1/2, -y'
61 'z, -y+3/4, -x+1/4'
62 '-z+1/4, y+1/2, -x+1/4'
63 '-z+1/4, -y+3/4, x'
64 'z, y+1/2, x'
65 '-y+1/4, -x+3/4, z'
66 'y, -x+3/4, -z+1/4'
67 '-y+1/4, x+1/2, -z+1/4'
68 'y, x+1/2, z'
69 '-x+1/4, z+1/2, -y+1/4'
70 '-x+1/4, -z+3/4, y'
71 'x, -z+3/4, -y+1/4'
72 'x, z+1/2, y'
73 '-z, x+1/4, y+1/4'
74 'z+3/4, x+1/4, -y+1/2'
75 'z+3/4, -x+1/2, y+1/4'
76 '-z, -x+1/2, -y+1/2'
77 'y+3/4, -z+1/2, x+1/4'
78 '-y, z+1/4, x+1/4'
79 'y+3/4, z+1/4, -x+1/2'
80 '-y, -z+1/2, -x+1/2'
81 'x+3/4, y+1/4, -z+1/2'
82 'x+3/4, -y+1/2, z+1/4'
83 '-x, y+1/4, z+1/4'
84 '-x, -y+1/2, -z+1/2'
85 'z, -x+3/4, -y+3/4'
86 '-z+1/4, -x+3/4, y+1/2'
87 '-z+1/4, x+1/2, -y+3/4'
88 'z, x+1/2, y+1/2'
89 '-y+1/4, z+1/2, -x+3/4'
90 'y, -z+3/4, -x+3/4'
91 '-y+1/4, -z+3/4, x+1/2'
92 'y, z+1/2, x+1/2'
93 '-x+1/4, -y+3/4, z+1/2'
94 '-x+1/4, y+1/2, -z+3/4'
95 'x, -y+3/4, -z+3/4'
96 'x, y+1/2, z+1/2'
97 '-z+1/2, y+3/4, x+3/4'
98 'z+1/4, -y, x+3/4'
99 'z+1/4, y+3/4, -x'
100 '-z+1/2, -y, -x'
101 'y+1/4, x+3/4, -z'
102 '-y+1/2, x+3/4, z+3/4'
103 'y+1/4, -x, z+3/4'
104 '-y+1/2, -x, -z'
105 'x+1/4, -z, y+3/4'
106 'x+1/4, z+3/4, -y'
107 '-x+1/2, z+3/4, y+3/4'
108 '-x+1/2, -z, -y'
109 'z+1/2, -y+1/4, -x+1/4'
110 '-z+3/4, y, -x+1/4'
111 '-z+3/4, -y+1/4, x'
112 'z+1/2, y, x'
113 '-y+3/4, -x+1/4, z'
114 'y+1/2, -x+1/4, -z+1/4'
115 '-y+3/4, x, -z+1/4'
116 'y+1/2, x, z'
117 '-x+3/4, z, -y+1/4'
118 '-x+3/4, -z+1/4, y'
119 'x+1/2, -z+1/4, -y+1/4'
120 'x+1/2, z, y'
121 '-z+1/2, x+3/4, y+1/4'
122 'z+1/4, x+3/4, -y+1/2'
123 'z+1/4, -x, y+1/4'
124 '-z+1/2, -x, -y+1/2'
125 'y+1/4, -z, x+1/4'
126 '-y+1/2, z+3/4, x+1/4'
127 'y+1/4, z+3/4, -x+1/2'
128 '-y+1/2, -z, -x+1/2'
129 'x+1/4, y+3/4, -z+1/2'
130 'x+1/4, -y, z+1/4'
131 '-x+1/2, y+3/4, z+1/4'
132 '-x+1/2, -y, -z+1/2'
133 'z+1/2, -x+1/4, -y+3/4'
134 '-z+3/4, -x+1/4, y+1/2'
135 '-z+3/4, x, -y+3/4'
136 'z+1/2, x, y+1/2'
137 '-y+3/4, z, -x+3/4'
138 'y+1/2, -z+1/4, -x+3/4'
139 '-y+3/4, -z+1/4, x+1/2'
140 'y+1/2, z, x+1/2'
141 '-x+3/4, -y+1/4, z+1/2'
142 '-x+3/4, y, -z+3/4'
143 'x+1/2, -y+1/4, -z+3/4'
144 'x+1/2, y, z+1/2'
145 '-z+1/2, y+1/4, x+1/4'
146 'z+1/4, -y+1/2, x+1/4'
147 'z+1/4, y+1/4, -x+1/2'
148 '-z+1/2, -y+1/2, -x+1/2'
149 'y+1/4, x+1/4, -z+1/2'
150 '-y+1/2, x+1/4, z+1/4'
151 'y+1/4, -x+1/2, z+1/4'
152 '-y+1/2, -x+1/2, -z+1/2'
153 'x+1/4, -z+1/2, y+1/4'
154 'x+1/4, z+1/4, -y+1/2'
155 '-x+1/2, z+1/4, y+1/4'
156 '-x+1/2, -z+1/2, -y+1/2'
157 'z+1/2, -y+3/4, -x+3/4'
158 '-z+3/4, y+1/2, -x+3/4'
159 '-z+3/4, -y+3/4, x+1/2'
160 'z+1/2, y+1/2, x+1/2'
161 '-y+3/4, -x+3/4, z+1/2'
162 'y+1/2, -x+3/4, -z+3/4'
163 '-y+3/4, x+1/2, -z+3/4'
164 'y+1/2, x+1/2, z+1/2'
165 '-x+3/4, z+1/2, -y+3/4'
166 '-x+3/4, -z+3/4, y+1/2'
167 'x+1/2, -z+3/4, -y+3/4'
168 'x+1/2, z+1/2, y+1/2'
169 '-z+1/2, x+1/4, y+3/4'
170 'z+1/4, x+1/4, -y'
171 'z+1/4, -x+1/2, y+3/4'
172 '-z+1/2, -x+1/2, -y'
173 'y+1/4, -z+1/2, x+3/4'
174 '-y+1/2, z+1/4, x+3/4'
175 'y+1/4, z+1/4, -x'
176 '-y+1/2, -z+1/2, -x'
177 'x+1/4, y+1/4, -z'
178 'x+1/4, -y+1/2, z+3/4'
179 '-x+1/2, y+1/4, z+3/4'
180 '-x+1/2, -y+1/2, -z'
181 'z+1/2, -x+3/4, -y+1/4'
182 '-z+3/4, -x+3/4, y'
183 '-z+3/4, x+1/2, -y+1/4'
184 'z+1/2, x+1/2, y'
185 '-y+3/4, z+1/2, -x+1/4'
186 'y+1/2, -z+3/4, -x+1/4'
187 '-y+3/4, -z+3/4, x'
188 'y+1/2, z+1/2, x'
189 '-x+3/4, -y+3/4, z'
190 '-x+3/4, y+1/2, -z+1/4'
191 'x+1/2, -y+3/4, -z+1/4'
192 'x+1/2, y+1/2, z'
loop_
_atom_type_symbol
_atom_type_oxidation_number
Te0+ 0
Si0+ 0
Te0+ 0
Si0+ 0
Te0+ 0
Si0+ 0
loop_
_atom_site_label
_atom_site_type_symbol
_atom_site_symmetry_multiplicity
_atom_site_Wyckoff_symbol
_atom_site_fract_x
_atom_site_fract_y
_atom_site_fract_z
_atom_site_B_iso_or_equiv
_atom_site_occupancy
_atom_site_attached_hydrogens
Te1 Te0+ 16 a 0.125 0.125 0.125 0.46(10) 1. 0
Te2 Te0+ 64 e 0.0363(5) 0.0363(5) 0.0363(5) 1.2(2) 0.315(5) 0
Si1 Si0+ 64 e 0.0363(5) 0.0363(5) 0.0363(5) 1.2(2) 0.685(5) 0
Te3 Te0+ 64 e 0.2180(3) 0.2180(3) 0.2180(3) 1.2(2) 0.315(5) 0
Si2 Si0+ 64 e 0.2180(3) 0.2180(3) 0.2180(3) 1.2(2) 0.685(5) 0
Te4 Te0+ 96 g 0.25 0.1257(2) 0.8743(2) 0.67(8) 1. 0
Si3 Si0+ 192 h 0.2754(5) 0.1806(4) 0.1240(16) 0.8(2) 1. 0
#End of TTdata_413174-ICSD