
#(C) 2017 by FIZ Karlsruhe - Leibniz Institute for Information Infrastructure.  All rights reserved.
data_20624-ICSD
_database_code_ICSD 20624
_audit_creation_date 1980-01-01
_audit_update_record 2000-07-15
_chemical_name_systematic 'Tin oxide'
_chemical_formula_structural 'Sn O'
_chemical_formula_sum 'O1 Sn1'
_exptl_crystal_density_diffrn 7.54
_cell_measurement_pressure 9000000.
_publ_section_title 'The crystal structure of tin oxide at high pressure'
loop_
_citation_id
_citation_journal_full
_citation_year
_citation_journal_volume
_citation_page_first
_citation_page_last
_citation_journal_id_ASTM
primary 'Doklady Akademii Nauk SSSR' 1969 187 307 310 DANKAS
loop_
_publ_author_name
'Serebrjanaja, N.R.'
'Kabalkina, S.S.'
'Vereshchagin, L.F.'
_cell_length_a 3.82
_cell_length_b 3.61
_cell_length_c 4.3
_cell_angle_alpha 90.
_cell_angle_beta 90.
_cell_angle_gamma 90.
_cell_volume 59.3
_cell_formula_units_Z 2
_symmetry_space_group_name_H-M 'P m 21 n'
_symmetry_Int_Tables_number 31
loop_
_symmetry_equiv_pos_site_id
_symmetry_equiv_pos_as_xyz
1 'x+1/2, y+1/2, -z'
2 '-x+1/2, y+1/2, -z'
3 '-x, y, z'
4 'x, y, z'
loop_
_atom_type_symbol
_atom_type_oxidation_number
Sn2+ 2
O2- -2
loop_
_atom_site_label
_atom_site_type_symbol
_atom_site_symmetry_multiplicity
_atom_site_Wyckoff_symbol
_atom_site_fract_x
_atom_site_fract_y
_atom_site_fract_z
_atom_site_B_iso_or_equiv
_atom_site_occupancy
_atom_site_attached_hydrogens
Sn1 Sn2+ 2 a 0 0.5 0.2 . 1. 0
O1 O2- 2 a 0 0.25 0.75 . 1. 0
#End of TTdata_20624-ICSD