
#(C) 2017 by FIZ Karlsruhe - Leibniz Institute for Information Infrastructure.  All rights reserved.
data_28856-ICSD
_database_code_ICSD 28856
_audit_creation_date 1980-01-01
_audit_update_record 2000-12-16
_chemical_name_systematic Boron
_chemical_formula_structural B
_chemical_formula_sum B1
_exptl_crystal_density_diffrn 2.34
_publ_section_title 'On the structure of elementary boron'
loop_
_citation_id
_citation_journal_full
_citation_year
_citation_journal_volume
_citation_page_first
_citation_page_last
_citation_journal_id_ASTM
primary 'Journal of the American Chemical Society' 1951 73 1892 1893 JACSAT
loop_
_publ_author_name
'Hoard, J.L.'
'Geller, S.'
'Hughes, R.E.'
_cell_length_a 8.73(2)
_cell_length_b 8.73(2)
_cell_length_c 5.03(2)
_cell_angle_alpha 90.
_cell_angle_beta 90.
_cell_angle_gamma 90.
_cell_volume 383.35
_cell_formula_units_Z 50
_symmetry_space_group_name_H-M 'P -4 n 2'
_symmetry_Int_Tables_number 118
loop_
_symmetry_equiv_pos_site_id
_symmetry_equiv_pos_as_xyz
1 '-y+1/2, -x+1/2, -z+1/2'
2 'y, -x, -z'
3 'x+1/2, -y+1/2, z+1/2'
4 '-x, -y, z'
5 'y+1/2, x+1/2, -z+1/2'
6 '-y, x, -z'
7 '-x+1/2, y+1/2, z+1/2'
8 'x, y, z'
loop_
_atom_type_symbol
_atom_type_oxidation_number
B0+ 0
loop_
_atom_site_label
_atom_site_type_symbol
_atom_site_symmetry_multiplicity
_atom_site_Wyckoff_symbol
_atom_site_fract_x
_atom_site_fract_y
_atom_site_fract_z
_atom_site_B_iso_or_equiv
_atom_site_occupancy
_atom_site_attached_hydrogens
B1 B0+ 2 b 0 0 0.5 . 1. 0
B2 B0+ 8 i 0.328 0.095 0.395 . 1. 0
B3 B0+ 8 i 0.095 0.328 0.395 . 1. 0
B4 B0+ 8 i 0.223 0.078 0.105 . 1. 0
B5 B0+ 8 i 0.078 0.223 0.105 . 1. 0
B6 B0+ 8 i 0.127 0.127 0.395 . 1. 0
B7 B0+ 8 i 0.25 0.25 -.078 . 1. 0
#End of TTdata_28856-ICSD