
#(C) 2017 by FIZ Karlsruhe - Leibniz Institute for Information Infrastructure.  All rights reserved.
data_31684-ICSD
_database_code_ICSD 31684
_audit_creation_date 1980-01-01
_audit_update_record 2013-02-01
_chemical_name_systematic Polonium
_chemical_formula_structural Po
_chemical_formula_sum Po1
_exptl_crystal_density_diffrn 9.33
_publ_section_title 'The crystal structure of polonium by electron diffraction'
loop_
_citation_id
_citation_journal_full
_citation_year
_citation_journal_volume
_citation_page_first
_citation_page_last
_citation_journal_id_ASTM
primary 'Journal of Chemical Physics' 1936 4 648 652 JCPSA6
loop_
_publ_author_name
'Rollier, M.A.'
'Hendricks, S.B.'
'Maxwell, L.R.'
_cell_length_a 7.42(7)
_cell_length_b 4.29(4)
_cell_length_c 14.1
_cell_angle_alpha 90.
_cell_angle_beta 92.
_cell_angle_gamma 90.
_cell_volume 448.55
_cell_formula_units_Z 12
_symmetry_space_group_name_H-M 'C 1 2 1'
_symmetry_Int_Tables_number 5
loop_
_symmetry_equiv_pos_site_id
_symmetry_equiv_pos_as_xyz
1 '-x, y, -z'
2 'x, y, z'
3 '-x+1/2, y+1/2, -z'
4 'x+1/2, y+1/2, z'
loop_
_atom_type_symbol
_atom_type_oxidation_number
Po0+ 0
loop_
_atom_site_label
_atom_site_type_symbol
_atom_site_symmetry_multiplicity
_atom_site_Wyckoff_symbol
_atom_site_fract_x
_atom_site_fract_y
_atom_site_fract_z
_atom_site_B_iso_or_equiv
_atom_site_occupancy
_atom_site_attached_hydrogens
Po1 Po0+ 4 c 0.05 0.27 0.245 . 1. 0
Po2 Po0+ 4 c 0.31 -.2 0.43 . 1. 0
Po3 Po0+ 4 c 0.35 0.4 0.07 . 1. 0
#End of TTdata_31684-ICSD