
#(C) 2017 by FIZ Karlsruhe - Leibniz Institute for Information Infrastructure.  All rights reserved.
data_38213-ICSD
_database_code_ICSD 38213
_audit_creation_date 1980-01-01
_audit_update_record 2013-02-01
_chemical_name_systematic 'Gold(IV) telluride - HT'
_chemical_formula_structural 'Au Te2'
_chemical_formula_sum 'Au1 Te2'
_chemical_name_structure_type AuTe2(oP24)
_chemical_name_mineral Krennerite
_exptl_crystal_density_diffrn 9.29
_publ_section_title 'The crystal structure of Krennerite'
loop_
_citation_id
_citation_journal_full
_citation_year
_citation_journal_volume
_citation_page_first
_citation_page_last
_citation_journal_id_ASTM
primary 'Journal of the Washington Academy of Sciences' 1936 26 507 527 JWASA3
loop_
_publ_author_name
'Tunell, G.'
'Ksanda, C.J.'
_cell_length_a 16.510(30)
_cell_length_b 8.80(3)
_cell_length_c 4.45(3)
_cell_angle_alpha 90.
_cell_angle_beta 90.
_cell_angle_gamma 90.
_cell_volume 646.53
_cell_formula_units_Z 8
_symmetry_space_group_name_H-M 'P m a 2'
_symmetry_Int_Tables_number 28
loop_
_symmetry_equiv_pos_site_id
_symmetry_equiv_pos_as_xyz
1 'x+1/2, -y, z'
2 '-x+1/2, y, z'
3 '-x, -y, z'
4 'x, y, z'
loop_
_atom_type_symbol
_atom_type_oxidation_number
Au1+ 1
Au3+ 3
Te0+ 0
Te2- -2
Te1- -1
loop_
_atom_site_label
_atom_site_type_symbol
_atom_site_symmetry_multiplicity
_atom_site_Wyckoff_symbol
_atom_site_fract_x
_atom_site_fract_y
_atom_site_fract_z
_atom_site_B_iso_or_equiv
_atom_site_occupancy
_atom_site_attached_hydrogens
Au1 Au1+ 2 a 0 0 0 . 1. 0
Au2 Au1+ 2 c 0.25 0.32 0.01 . 1. 0
Au3 Au3+ 4 d 0.12 0.67 0.5 . 1. 0
Te1 Te0+ 2 c 0.25 0.03 0.04 . 1. 0
Te2 Te2- 2 c 0.25 0.63 0.04 . 1. 0
Te3 Te1- 4 d 0 0.3 0.04 . 1. 0
Te4 Te1- 4 d 0.13 0.37 0.5 . 1. 0
Te5 Te1- 4 d 0.12 0.97 0.5 . 1. 0
#End of TTdata_38213-ICSD