
#(C) 2018 by FIZ Karlsruhe - Leibniz Institute for Information Infrastructure.  All rights reserved.
data_408504-ICSD
_database_code_ICSD 408504
_audit_creation_date 2000-07-15
_chemical_name_systematic Cyclo-14-sulfur
_chemical_formula_structural S14
_chemical_formula_sum S14
_exptl_crystal_density_diffrn 2.05
_publ_section_title

;
A new allotrope of elemental sulfur: Convenient preparation of cyclo-S14 from
S8
;
loop_
_citation_id
_citation_journal_full
_citation_year
_citation_journal_volume
_citation_page_first
_citation_page_last
_citation_journal_id_ASTM
primary 'Angewandte Chemie, International Edition in English' 1998 37 2377 2378
ACIEAY
loop_
_publ_author_name
'Steudel, R.'
'Schumann, O.'
'Buschmann, J.'
'Luger, P.'
_cell_length_a 5.469(3)
_cell_length_b 9.662(5)
_cell_length_c 14.331(7)
_cell_angle_alpha 95.97(4)
_cell_angle_beta 98.96(4)
_cell_angle_gamma 100.43(4)
_cell_volume 728.83
_cell_formula_units_Z 2
_symmetry_space_group_name_H-M 'P -1'
_symmetry_Int_Tables_number 2
_refine_ls_R_factor_all 0.0841
loop_
_symmetry_equiv_pos_site_id
_symmetry_equiv_pos_as_xyz
1 '-x, -y, -z'
2 'x, y, z'
loop_
_atom_type_symbol
_atom_type_oxidation_number
S0+ 0
loop_
_atom_site_label
_atom_site_type_symbol
_atom_site_symmetry_multiplicity
_atom_site_Wyckoff_symbol
_atom_site_fract_x
_atom_site_fract_y
_atom_site_fract_z
_atom_site_B_iso_or_equiv
_atom_site_occupancy
_atom_site_attached_hydrogens
S1 S0+ 2 i 0.3489(5) 0.4121(2) 0.6424(2) . 1. 0
S2 S0+ 2 i 0.0685(4) 0.4279(2) 0.7208(2) . 1. 0
S3 S0+ 2 i 0.2124(5) 0.4239(2) 0.8612(2) . 1. 0
S4 S0+ 2 i 0.3258(5) 0.6303(3) 0.9264(2) . 1. 0
S5 S0+ 2 i -.0065(5) 0.6980(2) 0.9368(2) . 1. 0
S6 S0+ 2 i -.0534(5) 0.8151(3) 0.8264(2) . 1. 0
S7 S0+ 2 i 0.0989(5) 1.0208(3) 0.8855(2) . 1. 0
S8 S0+ 2 i 0.4832(4) 1.0541(2) 0.8909(2) . 1. 0
S9 S0+ 2 i 0.5635(4) 1.1788(2) 0.7882(2) . 1. 0
S10 S0+ 2 i 0.6133(4) 1.0541(2) 0.6708(2) . 1. 0
S11 S0+ 2 i 0.2706(5) 1.0086(2) 0.5792(2) . 1. 0
S12 S0+ 2 i 0.0968(5) 0.8067(3) 0.5934(2) . 1. 0
S13 S0+ 2 i 0.2798(5) 0.6747(3) 0.5213(2) . 1. 0
S14 S0+ 2 i 0.5223(5) 0.6129(3) 0.6265(2) . 1. 0
loop_
_atom_site_aniso_label
_atom_site_aniso_type_symbol
_atom_site_aniso_U_11
_atom_site_aniso_U_22
_atom_site_aniso_U_33
_atom_site_aniso_U_12
_atom_site_aniso_U_13
_atom_site_aniso_U_23
S1 S0+ 0.0381(13) 0.0260(11) 0.023(1) 0.0112(9) 0.0006(9) 0.0027(8)
S2 S0+ 0.0278(12) 0.0264(11) 0.0285(11) 0.0047(9) -.0011(9) 0.0007(9)
S3 S0+ 0.055(2) 0.0218(11) 0.0248(11) 0.0129(10) 0.0038(10) 0.0004(8)
S4 S0+ 0.0293(12) 0.0287(11) 0.0345(12) 0.0086(9) -.0042(9) -.0056(9)
S5 S0+ 0.0330(12) 0.0264(11) 0.0311(11) 0.0103(9) 0.0057(9) -.0005(9)
S6 S0+ 0.0327(13) 0.0363(13) 0.0256(11) 0.0052(10) -.0074(9) -.0014(9)
S7 S0+ 0.0341(13) 0.0308(12) 0.0317(12) 0.0175(10) 0.0054(9) 0.0024(9)
S8 S0+ 0.0289(12) 0.0317(12) 0.0219(10) 0.0098(9) -.0060(8) 0.0021(8)
S9 S0+ 0.0329(12) 0.0176(9) 0.0258(10) 0.0068(8) -.0025(8) -.0016(8)
S10 S0+ 0.0256(11) 0.0293(11) 0.0282(11) 0.0088(9) 0.0012(8) -.0027(9)
S11 S0+ 0.0372(13) 0.0280(11) 0.0236(10) 0.0105(10) -.0062(9) 0.0015(9)
S12 S0+ 0.0309(12) 0.0322(12) 0.0296(12) 0.0024(9) 0.0008(9) -.0023(9)
S13 S0+ 0.050(2) 0.0280(12) 0.0217(11) 0.0113(10) -.0076(10) 0.0002(8)
S14 S0+ 0.0303(12) 0.0338(13) 0.0290(11) -.0017(10) -.0094(9) 0.0054(9)
#End of TTdata_408504-ICSD