
#(C) 2017 by FIZ Karlsruhe - Leibniz Institute for Information Infrastructure.  All rights reserved.
data_94242-ICSD
_database_code_ICSD 94242
_audit_creation_date 2003-10-01
_audit_update_record 2015-08-01
_chemical_name_systematic 'Plutonium - alpha'
_chemical_formula_structural Pu
_chemical_formula_sum Pu1
_chemical_name_structure_type Pu(mP16)
_chemical_name_mineral Plutonium-alpha
_exptl_crystal_density_diffrn 20.22
_publ_section_title 'Local atomic structure of alpha-Pu'
loop_
_citation_id
_citation_journal_full
_citation_year
_citation_journal_volume
_citation_page_first
_citation_page_last
_citation_journal_id_ASTM
primary 'Physical Review, Serie 3. B - Condensed Matter (18,1978-)' 2001 63
1741111 1741118 PRBMDO
loop_
_publ_author_name
'Espinosa, F.J.'
'Villella, P.'
'Lashley, J.C.'
'Conradson, S.D.'
'Cox, L.E.'
'Martinez, R.'
'Morales, L.'
'Terry, J.'
'Pereyra, R.A.'
_cell_length_a 6.18595(32)
_cell_length_b 4.82598(23)
_cell_length_c 10.9719(6)
_cell_angle_alpha 90
_cell_angle_beta 101.787(5)
_cell_angle_gamma 90
_cell_volume 320.64
_cell_formula_units_Z 16
_symmetry_space_group_name_H-M 'P 1 21/m 1'
_symmetry_Int_Tables_number 11
loop_
_symmetry_equiv_pos_site_id
_symmetry_equiv_pos_as_xyz
1 'x, -y+1/2, z'
2 '-x, -y, -z'
3 '-x, y+1/2, -z'
4 'x, y, z'
loop_
_atom_type_symbol
_atom_type_oxidation_number
Pu0+ 0
loop_
_atom_site_label
_atom_site_type_symbol
_atom_site_symmetry_multiplicity
_atom_site_Wyckoff_symbol
_atom_site_fract_x
_atom_site_fract_y
_atom_site_fract_z
_atom_site_B_iso_or_equiv
_atom_site_occupancy
_atom_site_attached_hydrogens
Pu1 Pu0+ 2 e 0.3390(11) 0.25 0.1565(7) 0.0041(5) 1. 0
Pu2 Pu0+ 2 e 0.7704(13) 0.25 0.1717(6) 0.0041(5) 1. 0
Pu3 Pu0+ 2 e 0.1345(12) 0.25 0.3406(7) 0.0041(5) 1. 0
Pu4 Pu0+ 2 e 0.6605(13) 0.25 0.4569(8) 0.0041(5) 1. 0
Pu5 Pu0+ 2 e 0.0314(11) 0.25 0.6210(7) 0.0041(5) 1. 0
Pu6 Pu0+ 2 e 0.4719(11) 0.25 0.6503(6) 0.0041(5) 1. 0
Pu7 Pu0+ 2 e 0.3275(12) 0.25 0.9302(7) 0.0041(5) 1. 0
Pu8 Pu0+ 2 e 0.8707(11) 0.25 0.8958(6) 0.0041(5) 1. 0
#End of TTdata_94242-ICSD