
#(C) 2017 by FIZ Karlsruhe - Leibniz Institute for Information Infrastructure.  All rights reserved.
data_430557-ICSD
_database_code_ICSD 430557
_audit_creation_date 2016-08-01
_chemical_name_systematic 'Iron(III) oxide'
_chemical_formula_structural 'Fe2 O3'
_chemical_formula_sum 'Fe2 O3'
_exptl_crystal_density_diffrn 7.51
_cell_measurement_temperature 296.
_publ_section_title
'Structural complexity of simple Fe2 O3 at high pressures and temperatures'
loop_
_citation_id
_citation_journal_full
_citation_year
_citation_journal_volume
_citation_page_first
_citation_page_last
_citation_journal_id_ASTM
primary 'Nature Communications' 2016 7 10661-1 10661-6 NCAOBW
loop_
_publ_author_name
'Bykova, E.'
'Dubrovinsky, L.'
'Dubrovinskaia, N.'
'Bykov, M.'
'McCammon, C.'
'Ovsyannikov, S.V.'
'Liermann, H.-P.'
'Kupenko, I.'
'Chumakov, A.I.'
'Rueffer, R.'
'Hanfland, M.'
'Prakapenka, V.'
_cell_length_a 6.524(9)
_cell_length_b 4.702(3)
_cell_length_c 4.603(7)
_cell_angle_alpha 90.
_cell_angle_beta 90.
_cell_angle_gamma 90.
_cell_volume 141.2
_cell_formula_units_Z 4
_symmetry_space_group_name_H-M 'A b a 2'
_symmetry_Int_Tables_number 41
_refine_ls_R_factor_all 0.0943
loop_
_symmetry_equiv_pos_site_id
_symmetry_equiv_pos_as_xyz
1 'x+1/2, -y+1/2, z'
2 '-x+1/2, y+1/2, z'
3 '-x, -y, z'
4 'x, y, z'
5 'x+1/2, -y, z+1/2'
6 '-x+1/2, y, z+1/2'
7 '-x, -y+1/2, z+1/2'
8 'x, y+1/2, z+1/2'
loop_
_atom_type_symbol
_atom_type_oxidation_number
Fe3+ 3
O2- -2
loop_
_atom_site_label
_atom_site_type_symbol
_atom_site_symmetry_multiplicity
_atom_site_Wyckoff_symbol
_atom_site_fract_x
_atom_site_fract_y
_atom_site_fract_z
_atom_site_B_iso_or_equiv
_atom_site_occupancy
_atom_site_attached_hydrogens
Fe1 Fe3+ 8 b 0.3906(15) 0.2905(15) 0.406(8) 0.026(3) 1 0
O1 O2- 8 b 0.355(7) 0.150(6) 0.049(5) 0.002(8) 1 0
O2 O2- 4 a 0.5 0.5 0.127(15) 0.018(14) 1 0
#End of TTdata_430557-ICSD