
#(C) 2017 by FIZ Karlsruhe - Leibniz Institute for Information Infrastructure.  All rights reserved.
data_90911-ICSD
_database_code_ICSD 90911
_audit_creation_date 2002-04-01
_chemical_name_systematic 'Lanthanum telluride (1/2)'
_chemical_formula_structural 'La Te2'
_chemical_formula_sum 'La1 Te2'
_exptl_crystal_density_diffrn 6.9
_publ_section_title 'Crystal structure and electronic band structure of La Te2'
loop_
_citation_id
_citation_journal_full
_citation_year
_citation_journal_volume
_citation_page_first
_citation_page_last
_citation_journal_id_ASTM
primary 'Journal of Solid State Chemistry' 2000 149 155 166 JSSCBI
loop_
_publ_author_name
'Stoewe, K.'
_cell_length_a 9.190(1)
_cell_length_b 9.107(1)
_cell_length_c 9.070(1)
_cell_angle_alpha 90.
_cell_angle_beta 90.04(1)
_cell_angle_gamma 90.
_cell_volume 759.1
_cell_formula_units_Z 8
_symmetry_space_group_name_H-M 'P 1 c 1'
_symmetry_Int_Tables_number 7
_refine_ls_R_factor_all 0.058
loop_
_symmetry_equiv_pos_site_id
_symmetry_equiv_pos_as_xyz
1 'x, -y, z+1/2'
2 'x, y, z'
loop_
_atom_type_symbol
_atom_type_oxidation_number
La3+ 3
Te1- -1.5
loop_
_atom_site_label
_atom_site_type_symbol
_atom_site_symmetry_multiplicity
_atom_site_Wyckoff_symbol
_atom_site_fract_x
_atom_site_fract_y
_atom_site_fract_z
_atom_site_B_iso_or_equiv
_atom_site_occupancy
_atom_site_attached_hydrogens
La1 La3+ 2 a 0.7263(1) -.0038(1) 0.0059(1) . 1. 0
La2 La3+ 2 a 0.7270(1) 0.4962(1) -.0103(1) . 1. 0
La3 La3+ 2 a 0.2749(2) 0.2498(2) 0.2474(3) . 1. 0
La4 La3+ 2 a 0.2748(2) 0.2504(2) 0.7475(3) . 1. 0
Te1 Te1- 2 a 0.0006(1) 0.2421(1) -.0009(2) . 1. 0
Te2 Te1- 2 a -.0006(2) 0.7380(1) 0.0016(2) . 1. 0
Te3 Te1- 2 a 0.0003(1) -.0020(2) 0.2669(1) . 1. 0
Te4 Te1- 2 a -.0010(1) 0.4994(2) 0.2277(1) . 1. 0
Te5 Te1- 2 a 0.3660(1) -.0009(1) 0.0009(1) . 1. 0
Te6 Te1- 2 a 0.3657(1) 0.4991(1) -.0047(1) . 1. 0
Te7 Te1- 2 a 0.6324(1) 0.2503(2) 0.2469(2) . 1. 0
Te8 Te1- 2 a 0.6327(2) 0.2504(2) 0.7468(3) . 1. 0
loop_
_atom_site_aniso_label
_atom_site_aniso_type_symbol
_atom_site_aniso_U_11
_atom_site_aniso_U_22
_atom_site_aniso_U_33
_atom_site_aniso_U_12
_atom_site_aniso_U_13
_atom_site_aniso_U_23
La1 La3+ 0.0101(3) 0.0177(3) 0.0145(4) -.0002(4) -.0048(3) 0.0030(5)
La2 La3+ 0.0115(4) 0.0172(3) 0.0179(5) 0.0007(4) -.0049(3) -.0022(7)
La3 La3+ 0.0157(6) 0.0156(4) 0.0187(5) -.0030(6) -.0070(8) -.0005(2)
La4 La3+ 0.0149(6) 0.0156(4) 0.0189(5) 0.0014(6) -.0071(8) 0.0004(2)
Te1 Te1- 0.0135(4) 0.0245(4) 0.0327(6) 0.0005(6) -.0088(9) 0.0089(3)
Te2 Te1- 0.0112(5) 0.0244(4) 0.0305(7) 0.0027(6) -.0086(9) 0.0017(4)
Te3 Te1- 0.0084(3) 0.0159(3) 0.0107(3) -.0016(9) -.0032(4) 0.0008(4)
Te4 Te1- 0.0120(4) 0.0162(3) 0.0211(4) -.0022(9) -.0011(6) -.0053(4)
Te5 Te1- 0.0146(4) 0.0147(3) 0.0141(5) 0.0002(4) -.0046(3) 0.0001(7)
Te6 Te1- 0.0146(4) 0.0131(3) 0.0147(5) 0.0000(4) -.0044(3) 0.0000(8)
Te7 Te1- 0.0077(5) 0.0164(4) 0.0159(4) -.0002(6) -.0043(9) -.0005(2)
Te8 Te1- 0.0088(6) 0.0160(4) 0.0152(5) 0.0014(6) -.0040(9) -.0008(2)
#End of TTdata_90911-ICSD