
#(C) 2018 by FIZ Karlsruhe - Leibniz Institute for Information Infrastructure.  All rights reserved.
data_2429-ICSD
_database_code_ICSD 2429
_audit_creation_date 1980-01-01
_audit_update_record 2010-08-01
_chemical_name_systematic 'Indium(I) chloride'
_chemical_formula_structural 'In Cl'
_chemical_formula_sum 'Cl1 In1'
_chemical_name_structure_type InCl
_exptl_crystal_density_diffrn 4.22
_publ_section_title 'The structures of yellow and red indium monochloride'
loop_
_citation_id
_citation_journal_full
_citation_year
_citation_journal_volume
_citation_page_first
_citation_page_last
_citation_journal_id_ASTM
primary

;
Acta Crystallographica, Section B: Structural Crystallography and Crystal
Chemistry
; 1978 34 3333 3335 ACBCAR
loop_
_publ_author_name
'van der Vorst, C.P.J.M.'
'Verschoor, G.C.'
'Maaskant, W.J.A.'
_cell_length_a 12.373(1)
_cell_length_b 12.373(1)
_cell_length_c 12.373(1)
_cell_angle_alpha 90.
_cell_angle_beta 90.
_cell_angle_gamma 90.
_cell_volume 1894.2
_cell_formula_units_Z 32
_symmetry_space_group_name_H-M 'P 21 3'
_symmetry_Int_Tables_number 198
_refine_ls_R_factor_all 0.03
loop_
_symmetry_equiv_pos_site_id
_symmetry_equiv_pos_as_xyz
1 '-z+1/2, -x, y+1/2'
2 '-y+1/2, -z, x+1/2'
3 '-x+1/2, -y, z+1/2'
4 '-z, x+1/2, -y+1/2'
5 '-y, z+1/2, -x+1/2'
6 '-x, y+1/2, -z+1/2'
7 'z+1/2, -x+1/2, -y'
8 'y+1/2, -z+1/2, -x'
9 'x+1/2, -y+1/2, -z'
10 'z, x, y'
11 'y, z, x'
12 'x, y, z'
loop_
_atom_type_symbol
_atom_type_oxidation_number
In1+ 1
Cl1- -1
loop_
_atom_site_label
_atom_site_type_symbol
_atom_site_symmetry_multiplicity
_atom_site_Wyckoff_symbol
_atom_site_fract_x
_atom_site_fract_y
_atom_site_fract_z
_atom_site_B_iso_or_equiv
_atom_site_occupancy
_atom_site_attached_hydrogens
In1 In1+ 12 b 0.24873(5) 0.21978(5) -.02881(6) . 1. 0
In2 In1+ 12 b 0.75270(5) 0.77805(5) 0.02948(6) . 1. 0
In3 In1+ 4 a 0.03016(5) 0.03016(5) 0.03016(5) . 1. 0
In4 In1+ 4 a 0.46731(5) 0.46731(5) 0.46731(5) . 1. 0
Cl1 Cl1- 12 b 0.3005(2) -.0504(2) 0.0005(2) . 1. 0
Cl2 Cl1- 12 b 0.7998(2) 0.0549(2) -.0110(2) . 1. 0
Cl3 Cl1- 4 a 0.2061(2) 0.2061(2) 0.2061(2) . 1. 0
Cl4 Cl1- 4 a 0.7986(2) 0.7986(2) 0.7986(2) . 1. 0
loop_
_atom_site_aniso_label
_atom_site_aniso_type_symbol
_atom_site_aniso_U_11
_atom_site_aniso_U_22
_atom_site_aniso_U_33
_atom_site_aniso_U_12
_atom_site_aniso_U_13
_atom_site_aniso_U_23
In1 In1+ 0.0542(5) 0.0384(4) 0.0376(3) -.0068(7) 0.0115(6) -.0115(7)
In2 In1+ 0.0361(4) 0.0405(4) 0.0401(3) 0.0120(6) 0.0111(5) -.0063(7)
In3 In1+ 0.0379(3) 0.0379(3) 0.0379(3) -.0097(6) -.0097(6) -.0097(6)
In4 In1+ 0.0384(3) 0.0384(3) 0.0384(3) -.0116(6) -.0116(6) -.0116(6)
Cl1 Cl1- 0.038(1) 0.035(1) 0.049(1) 0.005(2) 0.004(2) 0.005(2)
Cl2 Cl1- 0.036(1) 0.035(1) 0.041(1) 0.0005(20) -.004(2) 0.0025(18)
Cl3 Cl1- 0.0362(8) 0.0362(8) 0.0362(8) -.005(2) -.005(2) -.005(2)
Cl4 Cl1- 0.0379(8) 0.0379(8) 0.0379(8) 0.0008(20) 0.0008(20) 0.0008(20)
#End of TTdata_2429-ICSD