
#(C) 2017 by FIZ Karlsruhe - Leibniz Institute for Information Infrastructure.  All rights reserved.
data_25364-ICSD
_database_code_ICSD 25364
_audit_creation_date 1980-01-01
_audit_update_record 2006-04-01
_chemical_name_systematic 'Mercury - As-doped'
_chemical_formula_structural Hg
_chemical_formula_sum Hg1
_exptl_crystal_density_diffrn 14.47
_publ_section_title 'Strukturuntersuchungen am System Quecksilber - Arsen'
loop_
_citation_id
_citation_journal_full
_citation_year
_citation_journal_volume
_citation_page_first
_citation_page_last
_citation_journal_id_ASTM
primary 'Journal of the Less-Common Metals' 1974 37 213 216 JCOMAH
loop_
_publ_author_name
'Puselj, M.'
'Ban, Z.'
_cell_length_a 4.54(2)
_cell_length_b 4.54(2)
_cell_length_c 7.74(2)
_cell_angle_alpha 90.
_cell_angle_beta 90.
_cell_angle_gamma 120.
_cell_volume 138.16
_cell_formula_units_Z 6
_symmetry_space_group_name_H-M 'P -6 m 2'
_symmetry_Int_Tables_number 187
_refine_ls_R_factor_all 0.159
loop_
_symmetry_equiv_pos_site_id
_symmetry_equiv_pos_as_xyz
1 'x, x-y, -z'
2 '-x+y, y, -z'
3 '-y, -x, -z'
4 'x, x-y, z'
5 '-x+y, y, z'
6 '-y, -x, z'
7 '-x+y, -x, -z'
8 '-y, x-y, -z'
9 'x, y, -z'
10 '-x+y, -x, z'
11 '-y, x-y, z'
12 'x, y, z'
loop_
_atom_type_symbol
_atom_type_oxidation_number
Hg0+ 0
loop_
_atom_site_label
_atom_site_type_symbol
_atom_site_symmetry_multiplicity
_atom_site_Wyckoff_symbol
_atom_site_fract_x
_atom_site_fract_y
_atom_site_fract_z
_atom_site_B_iso_or_equiv
_atom_site_occupancy
_atom_site_attached_hydrogens
Hg1 Hg0+ 2 g 0 0 0.25 . 1. 0
Hg2 Hg0+ 2 h 0.3333 0.6667 0.25 . 1. 0
Hg3 Hg0+ 1 e 0.6667 0.3333 0 . 1. 0
Hg4 Hg0+ 1 f 0.6667 0.3333 0.5 . 1. 0
#End of TTdata_25364-ICSD