#------------------------------------------------------------------------------
#$Date: 2016-02-13 21:28:24 +0200 (Sat, 13 Feb 2016) $
#$Revision: 176429 $
#$URL: svn://www.crystallography.net/cod/cif/2/10/61/2106143.cif $
#------------------------------------------------------------------------------
#
# This file is available in the Crystallography Open Database (COD),
# http://www.crystallography.net/. The original data for this entry
# were provided by IUCr Journals, http://journals.iucr.org/.
#
# The file may be used within the scientific community so long as
# proper attribution is given to the journal article from which the
# data were obtained.
#
data_2106143
loop_
_publ_author_name
'D'Alte da Veiga, L.M.'
'Andrade, L.R.'
'Costa, M.M.R.'
'de Almeida, M.J.M.'
'Matos Beja, A.'
_publ_section_title
;
 The ordering of the sigma-phases Cr2 Ru and Cr2 Os
;
_journal_name_full               'Acta Crystallographica B (24,1968-38,1982)'
_journal_page_first              1750
_journal_page_last               1757
_journal_volume                  36
_journal_year                    1980
_chemical_formula_sum            'Cr2 Ru'
_chemical_name_systematic        'Cr2 Ru'
_space_group_IT_number           136
_symmetry_space_group_name_Hall  '-P 4n 2n'
_symmetry_space_group_name_H-M   'P 42/m n m'
_cell_angle_alpha                90
_cell_angle_beta                 90
_cell_angle_gamma                90
_cell_formula_units_Z            10
_cell_length_a                   9.0635
_cell_length_b                   9.0635
_cell_length_c                   4.743
_cell_volume                     389.623
_citation_journal_id_ASTM        ACBCAR
_cod_data_source_file            DAltedaVeiga_ACBCAR_1980_1363.cif
_cod_data_source_block           Cr2Ru1
_cod_original_cell_volume        389.6234
_cod_original_formula_sum        'Cr2 Ru1'
_cod_database_code               2106143
loop_
_symmetry_equiv_pos_as_xyz
x,y,z
-y+1/2,x+1/2,z+1/2
-x,-y,z
y+1/2,-x+1/2,z+1/2
x+1/2,-y+1/2,-z+1/2
y,x,-z
-x+1/2,y+1/2,-z+1/2
-y,-x,-z
-x,-y,-z
y-1/2,-x-1/2,-z-1/2
x,y,-z
-y-1/2,x-1/2,-z-1/2
-x-1/2,y-1/2,z-1/2
-y,-x,z
x-1/2,-y-1/2,z-1/2
y,x,z
loop_
_atom_site_label
_atom_site_type_symbol
_atom_site_fract_x
_atom_site_fract_y
_atom_site_fract_z
_atom_site_occupancy
_atom_site_U_iso_or_equiv
Cr3 Cr 0.0624 0.2566 0 0.55 0.0
Cr4 Cr 0.5344 0.1317 0 0.6 0.0
Cr5 Cr 0.1841 0.1841 0.252 0.825 0.0
Cr1 Cr 0 0 0 0.8 0.0
Ru1 Ru 0 0 0 0.2 0.0
Ru2 Ru 0.4 0.4 0 0.35 0.0
Cr2 Cr 0.4 0.4 0 0.65 0.0
Ru5 Ru 0.1841 0.1841 0.252 0.175 0.0
Ru4 Ru 0.5344 0.1317 0 0.4 0.0
Ru3 Ru 0.0624 0.2566 0 0.45 0.0
