#------------------------------------------------------------------------------
#$Date: 2016-02-13 14:28:24 -0500 (Sat, 13 Feb 2016) $
#$Revision: 176429 $
#$URL: svn://www.crystallography.net/cod/cif/1/53/05/1530540.cif $
#------------------------------------------------------------------------------
#
# This file is available in the Crystallography Open Database (COD),
# http://www.crystallography.net/
#
# All data on this site have been placed in the public domain by the
# contributors.
#
data_1530540
loop_
_publ_author_name
'Palkina, K.K.'
'Kuvshinova, T.B.'
'Chibiskova, N.T.'
'Maksimova, S.I.'
'Volodina, A.N.'
_publ_section_title
;
 Synthesis and structure of Samarium tetrathiomonophosphate
;
_journal_name_full
'Izvestiya Akademii Nauk SSSR, Neorganicheskie Materialy'
_journal_page_first              1557
_journal_page_last               1560
_journal_volume                  20
_journal_year                    1984
_chemical_formula_sum            'P S4 Sm'
_chemical_name_systematic        'Sm P S4'
_space_group_IT_number           142
_symmetry_space_group_name_Hall  '-I 4bd 2c'
_symmetry_space_group_name_H-M   'I 41/a c d :2'
_cell_angle_alpha                90
_cell_angle_beta                 90
_cell_angle_gamma                90
_cell_formula_units_Z            16
_cell_length_a                   10.79
_cell_length_b                   10.79
_cell_length_c                   19.181
_cell_volume                     2233.131
_citation_journal_id_ASTM        IVNMAW
_cod_data_source_file            Palkina_IVNMAW_1984_1110.cif
_cod_data_source_block           P1S4Sm1
_cod_original_formula_sum        'P1 S4 Sm1'
_cod_database_code               1530540
loop_
_symmetry_equiv_pos_as_xyz
x,y,z
-y+1/4,x+3/4,z+1/4
-x+1/2,-y,z+1/2
y+1/4,-x+1/4,z+3/4
x,-y,-z+1/2
y+1/4,x+3/4,-z+3/4
-x+1/2,y,-z
-y+1/4,-x+1/4,-z+1/4
-x,-y,-z
y-1/4,-x-3/4,-z-1/4
x-1/2,y,-z-1/2
-y-1/4,x-1/4,-z-3/4
-x,y,z-1/2
-y-1/4,-x-3/4,z-3/4
x-1/2,-y,z
y-1/4,x-1/4,z-1/4
x+1/2,y+1/2,z+1/2
-y+3/4,x+5/4,z+3/4
-x+1,-y+1/2,z+1
y+3/4,-x+3/4,z+5/4
x+1/2,-y+1/2,-z+1
y+3/4,x+5/4,-z+5/4
-x+1,y+1/2,-z+1/2
-y+3/4,-x+3/4,-z+3/4
-x+1/2,-y+1/2,-z+1/2
y+1/4,-x-1/4,-z+1/4
x,y+1/2,-z
-y+1/4,x+1/4,-z-1/4
-x+1/2,y+1/2,z
-y+1/4,-x-1/4,z-1/4
x,-y+1/2,z+1/2
y+1/4,x+1/4,z+1/4
loop_
_atom_site_label
_atom_site_type_symbol
_atom_site_fract_x
_atom_site_fract_y
_atom_site_fract_z
_atom_site_occupancy
_atom_site_U_iso_or_equiv
Sm1 Sm+3 0 0.25 0.125 1 0.0
Sm2 Sm+3 0 0.25 0.375 1 0.0
S2 S-2 0.07 -0.003 0.162 1 0.0
P1 P+5 0.4619 0 0.25 1 0.0
S1 S-2 0.3111 0.1594 0.2535 1 0.0
