
#(C) 2018 by FIZ Karlsruhe - Leibniz Institute for Information Infrastructure.  All rights reserved.
data_251704-ICSD
_database_code_ICSD 251704
_audit_creation_date 2016-02-01
_chemical_name_systematic 'Dieuropium tris(molybdate) - beta''
_chemical_formula_structural 'Eu2 (Mo O4)3'
_chemical_formula_sum 'Eu2 Mo3 O12'
_chemical_name_structure_type Gd2(MoO4)3(oP68)
_exptl_crystal_density_diffrn 4.46
_cell_measurement_temperature 300.
_publ_section_title

;
Crystal structure and luminescent properties of R2-x Eux (Mo O4)3 (R = Gd, Sm)
red phosphors
;
loop_
_citation_id
_citation_journal_full
_citation_year
_citation_journal_volume
_citation_page_first
_citation_page_last
_citation_journal_id_ASTM
primary 'Chemistry of Materials' 2014 26 7124 7136 CMATEX
loop_
_publ_author_name
'Morozov, Vladimir A.'
'Raskina, Maria V.'
'Lazoryak, Bogdan I.'
'Meert, Katrien W.'
'Korthout, Katleen'
'Smet, Philippe F.'
'Poelman, Dirk'
'Gauquelin, Nicolas'
'Verbeeck, Johan'
'Abakumov, Artem M.'
'Hadermann, Joke'
_cell_length_a 10.41525(1)
_cell_length_b 10.44871(1)
_cell_length_c 10.73114(1)
_cell_angle_alpha 90
_cell_angle_beta 90
_cell_angle_gamma 90
_cell_volume 1167.81
_cell_formula_units_Z 4
_symmetry_space_group_name_H-M 'P b a 2'
_symmetry_Int_Tables_number 32
_refine_ls_R_factor_all 0.032
loop_
_symmetry_equiv_pos_site_id
_symmetry_equiv_pos_as_xyz
1 'x+1/2, -y+1/2, z'
2 '-x+1/2, y+1/2, z'
3 '-x, -y, z'
4 'x, y, z'
loop_
_atom_type_symbol
_atom_type_oxidation_number
Eu3+ 3
Mo6+ 6
O2- -2
loop_
_atom_site_label
_atom_site_type_symbol
_atom_site_symmetry_multiplicity
_atom_site_Wyckoff_symbol
_atom_site_fract_x
_atom_site_fract_y
_atom_site_fract_z
_atom_site_B_iso_or_equiv
_atom_site_occupancy
_atom_site_attached_hydrogens
Eu1 Eu3+ 4 c 0.18859(9) 0.49533(18) 0.73743(8) 0.0062(3) 1 0
Eu2 Eu3+ 4 c 0.49316(16) 0.31168(9) 0.26321(8) 0.0071(3) 1 0
Mo1 Mo6+ 4 c 0.20619(16) 0.4890(3) 0.35796(18) 0.0073(5) 1 0
Mo2 Mo6+ 4 c 0.0030(3) 0.20729(16) 0.64220(17) 0.0051(4) 1 0
Mo3 Mo6+ 4 c 0.2412(2) 0.2420(3) 0.000001 0.0061(4) 1 0
O1 O2- 4 c 0.1973(12) 0.4844(15) 0.5237(17) 0.015(2) 1 0
O2 O2- 4 c 0.1580(14) 0.3380(15) 0.2990(16) 0.015(2) 1 0
O3 O2- 4 c 0.1286(12) 0.005(2) 0.3125(12) 0.015(2) 1 0
O4 O2- 4 c 0.3850(14) 0.1104(14) 0.2943(17) 0.015(2) 1 0
O5 O2- 4 c 0.1551(15) 0.1507(14) 0.6755(14) 0.008(2) 1 0
O6 O2- 4 c 0.4819(14) 0.3020(11) 0.4841(16) 0.008(2) 1 0
O7 O2- 4 c 0.3829(14) 0.3806(13) 0.7207(15) 0.008(2) 1 0
O8 O2- 4 c 0.495(2) 0.1297(12) 0.6900(11) 0.008(2) 1 0
O9 O2- 4 c 0.1172(15) 0.1796(16) 0.0943(15) 0.0149(18) 1 0
O10 O2- 4 c 0.3175(16) 0.1187(16) 0.9123(16) 0.0149(18) 1 0
O11 O2- 4 c 0.3507(15) 0.3244(16) 0.0977(15) 0.0149(18) 1 0
O12 O2- 4 c 0.1752(16) 0.3512(16) 0.8974(16) 0.0149(18) 1 0
#End of TTdata_251704-ICSD