
#(C) 2018 by FIZ Karlsruhe - Leibniz Institute for Information Infrastructure.  All rights reserved.
data_85500-ICSD
_database_code_ICSD 85500
_audit_creation_date 1999-06-02
_audit_update_record 2006-04-01
_chemical_name_systematic 'Rubidium tetrafluoroferrate(III) - IV'
_chemical_formula_structural 'Rb (Fe F4)'
_chemical_formula_sum 'F4 Fe1 Rb1'
_exptl_crystal_density_diffrn 3.95
_cell_measurement_temperature 300.
_publ_section_title
'Structural phase transitions in the layer compound Rb Fe F4'
loop_
_citation_id
_citation_journal_full
_citation_year
_citation_journal_volume
_citation_page_first
_citation_page_last
_citation_journal_id_ASTM
primary 'Physica Status Solidi A: Applied Research' 1986 97 387 395 PSSABA
loop_
_publ_author_name
'Hidaka, M.'
'Akiyama, H.'
'Wanklyn, B.M.'
_cell_length_a 7.620(3)
_cell_length_b 7.647(5)
_cell_length_c 6.273(3)
_cell_angle_alpha 90.
_cell_angle_beta 90.
_cell_angle_gamma 90.
_cell_volume 365.53
_cell_formula_units_Z 4
_symmetry_space_group_name_H-M 'P 21 21 2'
_symmetry_Int_Tables_number 18
_refine_ls_R_factor_all 0.126
loop_
_symmetry_equiv_pos_site_id
_symmetry_equiv_pos_as_xyz
1 '-x+1/2, y+1/2, -z'
2 'x+1/2, -y+1/2, -z'
3 '-x, -y, z'
4 'x, y, z'
loop_
_atom_type_symbol
_atom_type_oxidation_number
Rb1+ 1
Fe3+ 3
F1- -1
loop_
_atom_site_label
_atom_site_type_symbol
_atom_site_symmetry_multiplicity
_atom_site_Wyckoff_symbol
_atom_site_fract_x
_atom_site_fract_y
_atom_site_fract_z
_atom_site_B_iso_or_equiv
_atom_site_occupancy
_atom_site_attached_hydrogens
Rb1 Rb1+ 2 b 0 0.5 0.549(3) . 1. 0
Rb2 Rb1+ 2 a 0 0 0.512(1) . 1. 0
Fe1 Fe3+ 4 c 0.282(1) 0.25 0 . 1. 0
F1 F1- 4 c 0.262(6) 0 0.064(5) . 1. 0
F2 F1- 4 c 0 0.251(10) -.083(7) . 1. 0
F3 F1- 4 c 0.234(5) 0.304(3) 0.293(11) . 1. 0
F4 F1- 4 c 0.309(3) 0.224(4) 0.773(9) . 1. 0
loop_
_atom_site_aniso_label
_atom_site_aniso_type_symbol
_atom_site_aniso_U_11
_atom_site_aniso_U_22
_atom_site_aniso_U_33
_atom_site_aniso_U_12
_atom_site_aniso_U_13
_atom_site_aniso_U_23
Rb1 Rb1+ 0.012(1) 0.013(1) 0.101(8) -0.002(1) 0 0
Rb2 Rb1+ 0.004(1) 0.005(1) 0.001(1) -0.001(1) 0 0
Fe1 Fe3+ 0.003(1) 0.002(1) 0.034(2) -0.001(1) -0.002(2) -0.005(2)
F1 F1- 0.025(6) 0.006(3) 0.027(10) 0.001(4) 0.009(11) 0.002(10)
F2 F1- 0.011(4) 0.036(9) 0.068(20) -0.017(7) 0.015(9) -0.011(20)
F3 F1- 0.022(8) 0.005(4) 0.080(23) -0.010(5) 0.003(12) -0.013(9)
F4 F1- 0.006(3) 0.008(6) 0.08(2) -0.002(4) -0.003(8) -0.001(9)
#End of TTdata_85500-ICSD