
#(C) 2017 by FIZ Karlsruhe - Leibniz Institute for Information Infrastructure.  All rights reserved.
data_154318-ICSD
_database_code_ICSD 154318
_audit_creation_date 2007-04-01
_audit_update_record 2012-02-01
_chemical_name_systematic 'Phosphorus (4) - gamma'
_chemical_formula_structural P4
_chemical_formula_sum P4
_exptl_crystal_density_diffrn 1.98
_cell_measurement_temperature 123.
_publ_section_title

;
The crystal structure of gamma-P4, a low temperature modification of white
phosphorus
;
loop_
_citation_id
_citation_journal_full
_citation_year
_citation_journal_volume
_citation_page_first
_citation_page_last
_citation_journal_id_ASTM
primary 'Zeitschrift fuer Kristallographie (1979-2010)' 2005 220 259 264 ZEKRDZ
loop_
_publ_author_name
'Okudera, H.'
'Dinnebier, R.E.'
'Simon, A.'
_cell_length_a 9.1709(5)
_cell_length_b 8.3385(5)
_cell_length_c 5.4336(2)
_cell_angle_alpha 90.
_cell_angle_beta 90.311(3)
_cell_angle_gamma 90.
_cell_volume 415.51
_cell_formula_units_Z 4
_symmetry_space_group_name_H-M 'C 1 2/m 1'
_symmetry_Int_Tables_number 12
_refine_ls_R_factor_all 0.038
loop_
_symmetry_equiv_pos_site_id
_symmetry_equiv_pos_as_xyz
1 '-x, y, -z'
2 '-x, -y, -z'
3 'x, -y, z'
4 'x, y, z'
5 '-x+1/2, y+1/2, -z'
6 '-x+1/2, -y+1/2, -z'
7 'x+1/2, -y+1/2, z'
8 'x+1/2, y+1/2, z'
loop_
_atom_type_symbol
_atom_type_oxidation_number
P0+ 0
loop_
_atom_site_label
_atom_site_type_symbol
_atom_site_symmetry_multiplicity
_atom_site_Wyckoff_symbol
_atom_site_fract_x
_atom_site_fract_y
_atom_site_fract_z
_atom_site_B_iso_or_equiv
_atom_site_occupancy
_atom_site_attached_hydrogens
P1 P0+ 4 i 0.1521(4) 0 0.7613(10) . 1. 0
P2 P0+ 4 i 0.2861(6) 0 0.4331(5) . 1. 0
P3 P0+ 8 j 0.3568(4) 0.1302 0.7580(6) . 1. 0
loop_
_atom_site_aniso_label
_atom_site_aniso_type_symbol
_atom_site_aniso_U_11
_atom_site_aniso_U_22
_atom_site_aniso_U_33
_atom_site_aniso_U_12
_atom_site_aniso_U_13
_atom_site_aniso_U_23
P1 P0+ 0.054(2) 0.057(2) 0.036(1) 0. 0.015(2) 0.
P2 P0+ 0.054(2) 0.057(2) 0.036(1) 0. 0.015(2) 0.
P3 P0+ 0.054(2) 0.057(2) 0.036(1) 0. 0.015(2) 0.
#End of TTdata_154318-ICSD