
#(C) 2017 by FIZ Karlsruhe - Leibniz Institute for Information Infrastructure, and the U.S. Secretary of
#Commerce on behalf of the United States.  All rights reserved.
data_651799-ICSD
_database_code_ICSD 651799
_audit_creation_date 2012-08-01
_audit_update_record 2013-08-01
_chemical_name_systematic Scandium
_chemical_formula_structural Sc
_chemical_formula_sum Sc1
_chemical_name_structure_type Sc
_exptl_crystal_density_diffrn 4.2
_cell_measurement_pressure 33500000.
_publ_section_title 'High-pressure phase transformation in scandium'
_publ_section_comment 'Cell and Type only determined'
loop_
_citation_id
_citation_journal_full
_citation_year
_citation_journal_volume
_citation_page_first
_citation_page_last
_citation_journal_id_ASTM
primary 'Physical Review, Serie 3. B - Condensed Matter (18,1978-)' 1982 25 6019
6021 PRBMDO
loop_
_publ_author_name
'Vohra, Y.K.'
'Grosshans, W.A.'
'Holzapfel, W.B.'
_cell_length_a 4.73(2)
_cell_length_b 4.73(2)
_cell_length_c 3.18(1)
_cell_angle_alpha 90.
_cell_angle_beta 90.
_cell_angle_gamma 90.
_cell_volume 71.15
_cell_formula_units_Z 4
_symmetry_space_group_name_H-M 'P 4 21 2'
_symmetry_Int_Tables_number 90
loop_
_symmetry_equiv_pos_site_id
_symmetry_equiv_pos_as_xyz
1 '-y+1/2, x+1/2, z'
2 'y+1/2, -x+1/2, z'
3 '-y, -x, -z'
4 'y, x, -z'
5 'x+1/2, -y+1/2, -z'
6 '-x+1/2, y+1/2, -z'
7 '-x, -y, z'
8 'x, y, z'
loop_
_atom_type_symbol
_atom_type_oxidation_number
Sc0+ 0
loop_
_atom_site_label
_atom_site_type_symbol
_atom_site_symmetry_multiplicity
_atom_site_Wyckoff_symbol
_atom_site_fract_x
_atom_site_fract_y
_atom_site_fract_z
_atom_site_B_iso_or_equiv
_atom_site_occupancy
_atom_site_attached_hydrogens
Sc1 Sc0+ 2 a 0 0 0 . 1. 0
Sc2 Sc0+ 2 c 0 0.5 0.625 . 1. 0
#End of TTdata_651799-ICSD