
#(C) 2017 by FIZ Karlsruhe - Leibniz Institute for Information Infrastructure.  All rights reserved.
data_164633-ICSD
_database_code_ICSD 164633
_audit_creation_date 2010-02-01
_chemical_name_systematic 'Calcium aluminium oxide (12/14/32)'
_chemical_formula_structural 'Ca12 Al14 O32'
_chemical_formula_sum 'Al14 Ca12 O32'
_chemical_name_structure_type Ba3CdSn2S8
_exptl_crystal_density_diffrn 2.64
_publ_section_title

;
Direct synthesis of powdery inorganic electride (Ca24 Al28 O64)4+ (e(-))4 and
determination of oxygen stoichiometry
;
loop_
_citation_id
_citation_journal_full
_citation_year
_citation_journal_volume
_citation_page_first
_citation_page_last
_citation_journal_id_ASTM
primary 'Chemistry of Materials' 2009 21 2589 2591 CMATEX
loop_
_publ_author_name
'Matsuishi, S.'
'Nomura, T.'
'Hirano, M.'
'Kodama, K.'
'Shamoto, S.'
'Hosono, H.'
_cell_length_a 11.998560(13)
_cell_length_b 11.998560(13)
_cell_length_c 11.998560(13)
_cell_angle_alpha 90.
_cell_angle_beta 90.
_cell_angle_gamma 90.
_cell_volume 1727.38
_cell_formula_units_Z 2
_symmetry_space_group_name_H-M 'I -4 3 d'
_symmetry_Int_Tables_number 220
loop_
_symmetry_equiv_pos_site_id
_symmetry_equiv_pos_as_xyz
1 '-y+1/4, -x+3/4, z+3/4'
2 'y+3/4, -x+1/4, -z+3/4'
3 '-y+3/4, x+3/4, -z+1/4'
4 'y+1/4, x+1/4, z+1/4'
5 'z+1/2, -x+1/2, -y'
6 '-z+1/2, -x, y+1/2'
7 '-z, x+1/2, -y+1/2'
8 'z, x, y'
9 'z+3/4, -y+1/4, -x+3/4'
10 '-z+3/4, y+3/4, -x+1/4'
11 '-z+1/4, -y+3/4, x+3/4'
12 'z+1/4, y+1/4, x+1/4'
13 '-y, z+1/2, -x+1/2'
14 'y+1/2, -z+1/2, -x'
15 '-y+1/2, -z, x+1/2'
16 'y, z, x'
17 '-x+3/4, z+3/4, -y+1/4'
18 '-x+1/4, -z+3/4, y+3/4'
19 'x+3/4, -z+1/4, -y+3/4'
20 'x+1/4, z+1/4, y+1/4'
21 '-x+1/2, -y, z+1/2'
22 '-x, y+1/2, -z+1/2'
23 'x+1/2, -y+1/2, -z'
24 'x, y, z'
25 '-y+3/4, -x+1/4, z+1/4'
26 'y+1/4, -x+3/4, -z+1/4'
27 '-y+1/4, x+1/4, -z+3/4'
28 'y+3/4, x+3/4, z+3/4'
29 'z, -x, -y+1/2'
30 '-z, -x+1/2, y'
31 '-z+1/2, x, -y'
32 'z+1/2, x+1/2, y+1/2'
33 'z+1/4, -y+3/4, -x+1/4'
34 '-z+1/4, y+1/4, -x+3/4'
35 '-z+3/4, -y+1/4, x+1/4'
36 'z+3/4, y+3/4, x+3/4'
37 '-y+1/2, z, -x'
38 'y, -z, -x+1/2'
39 '-y, -z+1/2, x'
40 'y+1/2, z+1/2, x+1/2'
41 '-x+1/4, z+1/4, -y+3/4'
42 '-x+3/4, -z+1/4, y+1/4'
43 'x+1/4, -z+3/4, -y+1/4'
44 'x+3/4, z+3/4, y+3/4'
45 '-x, -y+1/2, z'
46 '-x+1/2, y, -z'
47 'x, -y, -z+1/2'
48 'x+1/2, y+1/2, z+1/2'
loop_
_atom_type_symbol
_atom_type_oxidation_number
Ca2+ 2
Al3+ 3
O2- -2
loop_
_atom_site_label
_atom_site_type_symbol
_atom_site_symmetry_multiplicity
_atom_site_Wyckoff_symbol
_atom_site_fract_x
_atom_site_fract_y
_atom_site_fract_z
_atom_site_B_iso_or_equiv
_atom_site_occupancy
_atom_site_attached_hydrogens
Ca1 Ca2+ 24 d 0.141529(42) 0. 0.25 0.684(10) 1. 0
Al1 Al3+ 16 c 0.017333(41) 0.017333(41) 0.017333(41) 0.398(18) 1. 0
Al2 Al3+ 12 b 0.875 0. 0.25 0.135(20) 1. 0
O1 O2- 48 e 0.149300(81) 0.963910(77) 0.055868(93) 0.539(24) 1. 0
O2 O2- 16 c 0.935558(97) 0.935558(97) 0.935558(97) 0.447(48) 1. 0
#End of TTdata_164633-ICSD