
#(C) 2018 by FIZ Karlsruhe - Leibniz Institute for Information Infrastructure.  All rights reserved.
data_174242-ICSD
_database_code_ICSD 174242
_audit_creation_date 2010-08-01
_audit_update_record 2013-08-01
_chemical_name_systematic 'Scandium boride (0.96/15)'
_chemical_formula_structural 'Sc0.96 B15'
_chemical_formula_sum 'B15 Sc0.96'
_chemical_name_structure_type B15Sc
_exptl_crystal_density_diffrn 2.71
_cell_measurement_temperature 294.
_publ_section_title

;
Synthese, Struktur- und Eigenschaftsuntersuchungen borreicher Boride des
Magnesiums, Scandiums, Yttriums und der Lanthanoide
;
loop_
_citation_id
_citation_journal_full
_citation_year
_citation_journal_volume
_citation_page_first
_citation_page_last
_citation_journal_id_ASTM
primary 'Dissertation Universitaet Freiburg/Breisgau' 2009 2009 1 241 DIFREZ
loop_
_publ_author_name
'Pediaditakis, A.S.'
_cell_length_a 10.2995(15)
_cell_length_b 10.2995(15)
_cell_length_c 14.223(3)
_cell_angle_alpha 90.
_cell_angle_beta 90.
_cell_angle_gamma 90.
_cell_volume 1508.77
_cell_formula_units_Z 12
_symmetry_space_group_name_H-M 'P 41'
_symmetry_Int_Tables_number 76
_refine_ls_R_factor_all 0.0549
loop_
_symmetry_equiv_pos_site_id
_symmetry_equiv_pos_as_xyz
1 'y, -x, z+3/4'
2 '-y, x, z+1/4'
3 '-x, -y, z+1/2'
4 'x, y, z'
loop_
_atom_type_symbol
_atom_type_oxidation_number
Sc0+ 0
B0+ 0
loop_
_atom_site_label
_atom_site_type_symbol
_atom_site_symmetry_multiplicity
_atom_site_Wyckoff_symbol
_atom_site_fract_x
_atom_site_fract_y
_atom_site_fract_z
_atom_site_B_iso_or_equiv
_atom_site_occupancy
_atom_site_attached_hydrogens
Sc1 Sc0+ 4 a 0.30024(7) 0.99649(7) 0.87803(5) 0.0036(2) 0.936(5) 0
Sc2 Sc0+ 4 a 0.20537(7) 0.48493(7) 0.38893(5) 0.0035(2) 0.966(5) 0
Sc3 Sc0+ 4 a 0.32062(9) 0.88924(8) 0.67783(6) 0.0136(3) 0.987(5) 0
B1 B0+ 4 a 0.3795(4) 0.7629(4) 0.8805(3) 0.0076(8) 1 0
B2 B0+ 4 a 0.1210(4) 0.2601(4) 0.3785(3) 0.0073(8) 1 0
B3 B0+ 4 a 0.5313(4) 0.1329(4) 0.4649(3) 0.0056(8) 1 0
B4 B0+ 4 a 0.3661(4) 0.9709(4) 0.0457(3) 0.0052(8) 1 0
B5 B0+ 4 a 0.3097(4) 0.4578(4) 0.2340(3) 0.0044(8) 1 0
B6 B0+ 4 a 0.1888(4) 0.9601(4) 0.0260(3) 0.0059(8) 1 0
B7 B0+ 4 a 0.5392(4) 0.3892(4) 0.3699(3) 0.0061(8) 1 0
B8 B0+ 4 a 0.0381(4) 0.1065(4) 0.3887(3) 0.0069(8) 1 0
B9 B0+ 4 a 0.5106(4) 0.1102(4) 0.3304(3) 0.0046(8) 1 0
B10 B0+ 4 a 0.0076(4) 0.3880(4) 0.4246(3) 0.0053(8) 1 0
B11 B0+ 4 a 0.4739(5) 0.7282(4) 0.7813(3) 0.0062(8) 1 0
B12 B0+ 4 a 0.0246(4) 0.2266(5) 0.4766(3) 0.0070(9) 1 0
B13 B0+ 4 a 0.2250(4) 0.6150(5) 0.2482(3) 0.0066(8) 1 0
B14 B0+ 4 a 0.2761(4) 0.1227(4) 0.0116(3) 0.0075(8) 1 0
B15 B0+ 4 a 0.3976(4) 0.3868(4) 0.4464(3) 0.0065(8) 1 0
B16 B0+ 4 a 0.1071(4) 0.8908(4) 0.8116(3) 0.0068(8) 1 0
B17 B0+ 4 a 0.3726(4) 0.1055(5) 0.4090(3) 0.0064(8) 1 0
B18 B0+ 4 a 0.6051(4) 0.8688(4) 0.6012(3) 0.0069(8) 1 0
B19 B0+ 4 a 0.3719(4) 0.1949(4) 0.2997(3) 0.0053(8) 1 0
B20 B0+ 4 a 0.8714(5) 0.3035(4) 0.4595(3) 0.0066(8) 1 0
B21 B0+ 4 a 0.3846(5) 0.3607(5) 0.3183(3) 0.0077(8) 1 0
B22 B0+ 4 a 0.1168(4) 0.8641(4) 0.9391(3) 0.0062(8) 1 0
B23 B0+ 4 a 0.2895(4) 0.2601(4) 0.3947(3) 0.0044(8) 1 0
B24 B0+ 4 a 0.7880(4) 0.2360(4) 0.3647(3) 0.0057(8) 1 0
B25 B0+ 4 a 0.3244(4) 0.5491(4) 0.6427(3) 0.0072(8) 1 0
B26 B0+ 4 a 0.1844(4) 0.0646(4) 0.6191(3) 0.0059(8) 1 0
B27 B0+ 4 a 0.3948(4) 0.6936(4) 0.6752(4) 0.0054(8) 1 0
B28 B0+ 4 a 0.1042(4) 0.2084(4) 0.5798(3) 0.0052(8) 1 0
B29 B0+ 4 a 0.3168(4) 0.2150(4) 0.9062(3) 0.0075(8) 1 0
B30 B0+ 4 a 0.2091(4) 0.7187(5) 0.3468(3) 0.0086(9) 1 0
B31 B0+ 4 a 0.6065(4) 0.5294(4) 0.3425(3) 0.0057(8) 1 0
B32 B0+ 4 a 0.1169(4) 0.9702(4) 0.4192(3) 0.0070(8) 1 0
B33 B0+ 4 a 0.4681(5) 0.7807(5) 0.5801(3) 0.0055(8) 1 0
B34 B0+ 4 a 0.2904(4) 0.9665(4) 0.4284(4) 0.0066(8) 1 0
B35 B0+ 4 a 0.1842(4) 0.4991(5) 0.5779(3) 0.0098(8) 1 0
B36 B0+ 4 a 0.1096(4) 0.6913(4) 0.4584(3) 0.0060(8) 1 0
B37 B0+ 4 a 0.2288(5) 0.1891(4) 0.8014(3) 0.0060(8) 1 0
B38 B0+ 4 a 0.2777(4) 0.6906(4) 0.4598(3) 0.0054(8) 1 0
B39 B0+ 4 a 0.3506(4) 0.5350(5) 0.5135(3) 0.0070(8) 1 0
B40 B0+ 4 a 0.1462(4) 0.0475(5) 0.7482(3) 0.0070(8) 1 0
B41 B0+ 4 a 0.3257(4) 0.4465(4) 0.7318(3) 0.0068(8) 1 0
B42 B0+ 4 a 0.1934(4) 0.9423(4) 0.5325(3) 0.0050(8) 1 0
B43 B0+ 4 a 0.3400(4) 0.8361(5) 0.5075(3) 0.0072(8) 1 0
B44 B0+ 4 a 0.0458(4) 0.5300(4) 0.5071(3) 0.0071(8) 1 0
B45 B0+ 4 a 0.3467(4) 0.8196(4) 0.3802(3) 0.0086(8) 1 0
loop_
_atom_site_aniso_label
_atom_site_aniso_type_symbol
_atom_site_aniso_U_11
_atom_site_aniso_U_22
_atom_site_aniso_U_33
_atom_site_aniso_U_12
_atom_site_aniso_U_13
_atom_site_aniso_U_23
Sc1 Sc0+ 0.0041(4) 0.0025(4) 0.0042(4) 0.0009(3) 0.0004(3) -0.0007(3)
Sc2 Sc0+ 0.0032(4) 0.0025(4) 0.0050(4) -0.0002(3) 0.0003(3) 0.0002(3)
Sc3 Sc0+ 0.0195(5) 0.0068(4) 0.0144(4) 0.0076(3) -0.0104(3) -0.0065(3)
B1 B0+ 0.0073(19) 0.0060(18) 0.0093(18) 0.0012(15) 0.0001(17) -0.0017(17)
B2 B0+ 0.0087(19) 0.0078(19) 0.0053(18) -0.0005(16) -0.0007(17) 0.0027(16)
B3 B0+ 0.0065(19) 0.0045(19) 0.0058(19) 0.0032(16) -0.0001(15) 0.0023(15)
B4 B0+ 0.0035(19) 0.0041(19) 0.0081(19) 0.0022(15) -0.0004(15) -0.0003(15)
B7 B0+ 0.0041(18) 0.010(2) 0.0039(18) -0.0011(15) -0.0030(15) 0.0018(16)
B8 B0+ 0.0048(18) 0.0062(18) 0.010(2) -0.0014(15) -0.0006(17) -0.0017(17)
B9 B0+ 0.0038(18) 0.007(2) 0.0030(18) -0.0002(16) 0.0005(14) 0.0008(15)
B10 B0+ 0.0043(19) 0.0074(19) 0.0041(18) 0.0025(15) -0.0002(16) 0.0009(16)
B11 B0+ 0.008(2) 0.0033(19) 0.007(2) -0.0005(17) -0.0009(16) -0.0009(15)
B12 B0+ 0.005(2) 0.007(2) 0.009(2) -0.0014(17) -0.0005(16) -0.0050(16)
B13 B0+ 0.005(2) 0.006(2) 0.0082(19) 0.0010(16) -0.0008(15) -0.0036(16)
B14 B0+ 0.006(2) 0.005(2) 0.011(2) 0.0003(16) 0.0005(16) -0.0026(16)
B15 B0+ 0.009(2) 0.0014(19) 0.009(2) 0.0001(16) -0.0010(16) 0.0000(15)
B16 B0+ 0.006(2) 0.006(2) 0.0085(19) 0.0024(16) -0.0038(16) -0.0022(16)
B17 B0+ 0.0029(18) 0.009(2) 0.007(2) 0.0011(15) -0.0013(14) -0.0025(15)
B18 B0+ 0.0051(19) 0.008(2) 0.0070(18) -0.0010(16) 0.0007(15) 0.0002(15)
B19 B0+ 0.0023(18) 0.008(2) 0.0057(17) -0.0030(15) 0.0013(15) 0.0005(15)
B20 B0+ 0.010(2) 0.0010(19) 0.0082(19) -0.0001(16) 0.0005(16) -0.0001(15)
B21 B0+ 0.006(2) 0.010(2) 0.0070(19) -0.0027(16) 0.0023(16) -0.0005(16)
B22 B0+ 0.008(2) 0.0052(19) 0.0050(19) 0.0023(16) -0.0045(15) 0.0017(15)
B25 B0+ 0.0069(19) 0.0064(19) 0.0084(19) -0.0002(15) 0.0018(16) -0.0028(16)
B26 B0+ 0.0060(19) 0.0061(18) 0.0057(19) 0.0022(15) 0.0010(15) 0.0013(15)
B27 B0+ 0.0030(18) 0.0038(19) 0.0093(19) 0.0014(15) 0.0001(16) 0.0034(16)
B28 B0+ 0.006(2) 0.0048(19) 0.0048(19) -0.0020(16) 0.0008(15) 0.0015(15)
B29 B0+ 0.008(2) 0.009(2) 0.0053(19) 0.0004(16) 0.0006(15) 0.0006(14)
B30 B0+ 0.006(2) 0.009(2) 0.010(2) 0.0000(17) 0.0047(16) 0.0017(16)
B31 B0+ 0.007(2) 0.005(2) 0.0048(17) -0.0025(16) 0.0002(15) 0.0000(15)
B32 B0+ 0.006(2) 0.009(2) 0.0061(18) -0.0026(16) -0.0006(16) 0.0005(15)
B33 B0+ 0.006(2) 0.007(2) 0.0042(18) 0.0023(16) -0.0013(15) -0.0002(15)
B34 B0+ 0.0045(19) 0.0071(19) 0.0081(19) -0.0004(15) 0.0009(16) 0.0001(16)
B35 B0+ 0.008(2) 0.011(2) 0.0106(17) -0.0021(17) 0.0008(16) 0.0019(16)
B36 B0+ 0.009(2) 0.006(2) 0.0029(17) -0.0023(16) 0.0030(15) -0.0006(14)
B37 B0+ 0.009(2) 0.0029(19) 0.0062(19) -0.0033(16) -0.0005(16) -0.0003(15)
B38 B0+ 0.0043(18) 0.0056(19) 0.0062(18) 0.0029(15) 0.0007(15) -0.0019(15)
B39 B0+ 0.008(2) 0.008(2) 0.005(2) 0.0000(16) -0.0005(15) 0.0036(16)
B40 B0+ 0.0025(19) 0.006(2) 0.012(2) 0.0004(16) 0.0016(15) 0.0010(16)
B41 B0+ 0.008(2) 0.005(2) 0.0076(19) -0.0047(16) 0.0021(16) -0.0042(16)
B42 B0+ 0.0040(19) 0.0027(19) 0.0084(18) 0.0018(15) 0.0014(15) 0.0019(14)
B43 B0+ 0.007(2) 0.007(2) 0.0074(17) -0.0030(15) 0.0000(16) -0.0005(15)
B44 B0+ 0.006(2) 0.007(2) 0.0076(18) 0.0003(16) 0.0029(16) 0.0011(15)
B45 B0+ 0.009(2) 0.010(2) 0.0063(19) 0.0011(16) 0.0000(17) 0.0006(17)
#End of TTdata_174242-ICSD