
#(C) 2018 by FIZ Karlsruhe - Leibniz Institute for Information Infrastructure.  All rights reserved.
data_85787-ICSD
_database_code_ICSD 85787
_audit_creation_date 1999-11-30
_chemical_name_systematic 'Uranium telluride (7/12)'
_chemical_formula_structural 'U7 Te12'
_chemical_formula_sum 'Te12 U7'
_chemical_name_structure_type Cr12P7
_exptl_crystal_density_diffrn 9.49
_publ_section_title

;
Characterization of the binary uranium and thorium tellurides U7 Te12 and Th7
Te12
;
loop_
_citation_id
_citation_journal_full
_citation_year
_citation_journal_volume
_citation_page_first
_citation_page_last
_citation_journal_id_ASTM
primary 'Inorganic Chemistry' 1998 37 5088 5091 INOCAJ
loop_
_publ_author_name
'Tougait, O.'
'Potel, M.'
'Noel, H.'
_cell_length_a 12.312(1)
_cell_length_b 12.312(1)
_cell_length_c 4.260(1)
_cell_angle_alpha 90.
_cell_angle_beta 90.
_cell_angle_gamma 120.
_cell_volume 559.24
_cell_formula_units_Z 1
_symmetry_space_group_name_H-M 'P -6'
_symmetry_Int_Tables_number 174
_refine_ls_R_factor_all 0.052
loop_
_symmetry_equiv_pos_site_id
_symmetry_equiv_pos_as_xyz
1 '-x+y, -x, -z'
2 '-y, x-y, -z'
3 'x, y, -z'
4 '-x+y, -x, z'
5 '-y, x-y, z'
6 'x, y, z'
loop_
_atom_type_symbol
_atom_type_oxidation_number
U3+ 3.429
Te2- -2
loop_
_atom_site_label
_atom_site_type_symbol
_atom_site_symmetry_multiplicity
_atom_site_Wyckoff_symbol
_atom_site_fract_x
_atom_site_fract_y
_atom_site_fract_z
_atom_site_B_iso_or_equiv
_atom_site_occupancy
_atom_site_attached_hydrogens
U1 U3+ 1 a 0 0 0 0.66(2) 1. 0
U2 U3+ 3 k 0.1738(1) 0.4659(1) 0.5 0.76(1) 1. 0
U3 U3+ 3 j 0.4335(1) 0.2676(1) 0 0.61(1) 1. 0
Te1 Te2- 3 k 0.2173(1) 0.2094(1) 0.5 0.71(2) 1. 0
Te2 Te2- 3 k 0.5257(1) 0.1349(1) 0.5 0.68(2) 1. 0
Te3 Te2- 3 j 0.3769(1) 0.4956(1) 0 0.88(2) 1. 0
Te4 Te2- 3 j 0.0168(1) 0.2644(1) 0 0.84(2) 1. 0
#End of TTdata_85787-ICSD
#(C) 2018 by FIZ Karlsruhe - Leibniz Institute for Information Infrastructure.  All rights reserved.
data_173310-ICSD
_database_code_ICSD 173310
_audit_creation_date 2008-08-01
_audit_update_record 2015-02-01
_chemical_name_systematic 'Calcium mercury (10.92/54.88)'
_chemical_formula_structural 'Ca9 Hg54 (Ca1.92 Hg0.08)'
_chemical_formula_sum 'Ca10.92 Hg54.08'
_chemical_name_structure_type Ca11-xHg54+x
_exptl_crystal_density_diffrn 12.55
_cell_measurement_temperature 193.
_publ_section_title
'Alkaline-earth metal mercury intermetallics A(11-x) Hg(54+x) (A = Ca, Sr)'
loop_
_citation_id
_citation_journal_full
_citation_year
_citation_journal_volume
_citation_page_first
_citation_page_last
_citation_journal_id_ASTM
primary 'Inorganic Chemistry' 2008 47 1313 1318 INOCAJ
loop_
_publ_author_name
'Tkachuk, A.V.'
'Mar, A.'
_cell_length_a 13.389(1)
_cell_length_b 13.389(1)
_cell_length_c 9.615(1)
_cell_angle_alpha 90.
_cell_angle_beta 90.
_cell_angle_gamma 120.
_cell_volume 1492.71
_cell_formula_units_Z 1
_symmetry_space_group_name_H-M 'P -6'
_symmetry_Int_Tables_number 174
_refine_ls_R_factor_all 0.0439
loop_
_symmetry_equiv_pos_site_id
_symmetry_equiv_pos_as_xyz
1 '-x+y, -x, -z'
2 '-y, x-y, -z'
3 'x, y, -z'
4 '-x+y, -x, z'
5 '-y, x-y, z'
6 'x, y, z'
loop_
_atom_type_symbol
_atom_type_oxidation_number
Ca0+ 0
Hg0+ 0
loop_
_atom_site_label
_atom_site_type_symbol
_atom_site_symmetry_multiplicity
_atom_site_Wyckoff_symbol
_atom_site_fract_x
_atom_site_fract_y
_atom_site_fract_z
_atom_site_B_iso_or_equiv
_atom_site_occupancy
_atom_site_attached_hydrogens
Ca1 Ca0+ 3 k 0.4648(6) 0.0570(6) 0.5 0.0083(12) 1 0
Ca2 Ca0+ 3 k 0.2095(6) 0.2581(6) 0.5 0.0080(12) 1 0
Ca3 Ca0+ 3 j 0.4314(6) 0.3094(6) 0. 0.0066(11) 1 0
Ca4 Ca0+ 2 h 0.3333 0.6667 0.1958(7) 0.008(2) 0.960(12) 0
Hg1 Hg0+ 2 h 0.3333 0.6667 0.1958(7) 0.008(2) 0.040(12) 0
Hg2 Hg0+ 6 l 0.45020(9) 0.27803(8) 0.34502(9) 0.00970(18) 1 0
Hg3 Hg0+ 6 l 0.23760(9) 0.04878(9) 0.34421(11) 0.0147(2) 1 0
Hg4 Hg0+ 6 l 0.17959(10) 0.20441(9) 0.17133(10) 0.0141(2) 1 0
Hg5 Hg0+ 6 l 0.45994(9) 0.10535(8) 0.16234(10) 0.01042(19) 1 0
Hg6 Hg0+ 6 l 0.14091(9) 0.41489(9) 0.29577(12) 0.01281(19) 1 0
Hg7 Hg0+ 6 l 0.39398(8) 0.44905(8) 0.26161(10) 0.00966(18) 1 0
Hg8 Hg0+ 3 k 0.34605(14) 0.54704(12) 0.5 0.0134(3) 1 0
Hg9 Hg0+ 3 j 0.23638(12) 0.02794(13) 0. 0.0153(3) 1 0
Hg10 Hg0+ 3 j 0.24942(12) 0.41372(13) 0. 0.0131(3) 1 0
Hg11 Hg0+ 3 j 0.10603(12) 0.51002(12) 0. 0.0114(2) 1 0
Hg12 Hg0+ 2 i 0.6667 0.3333 0.15681(19) 0.0122(3) 1 0
Hg13 Hg0+ 2 g 0. 0. 0.34481(19) 0.0129(3) 1 0
Hg14 Hg0+ 1 f 0.6667 0.3333 0.5 0.0090(4) 1 0
Hg15 Hg0+ 1 a 0. 0. 0. 0.0162(5) 1 0
loop_
_atom_site_aniso_label
_atom_site_aniso_type_symbol
_atom_site_aniso_U_11
_atom_site_aniso_U_22
_atom_site_aniso_U_33
_atom_site_aniso_U_12
_atom_site_aniso_U_13
_atom_site_aniso_U_23
Ca1 Ca0+ 0.010(3) 0.006(3) 0.009(3) 0.004(2) 0. 0.
Ca2 Ca0+ 0.012(3) 0.008(3) 0.007(3) 0.007(2) 0. 0.
Ca3 Ca0+ 0.005(3) 0.008(3) 0.006(2) 0.003(2) 0. 0.
Ca4 Ca0+ 0.007(3) 0.007(3) 0.010(3) 0.0035(14) 0. 0.
Hg1 Hg0+ 0.007(3) 0.007(3) 0.010(3) 0.0035(14) 0. 0.
Hg2 Hg0+ 0.0118(4) 0.0099(4) 0.0093(3) 0.0069(4) -0.0009(3) -0.0008(3)
Hg3 Hg0+ 0.0104(4) 0.0122(4) 0.0229(5) 0.0067(4) -0.0005(4) -0.0013(4)
Hg4 Hg0+ 0.0159(5) 0.0116(4) 0.0111(4) 0.0042(4) 0.0002(4) 0.0013(3)
Hg5 Hg0+ 0.0143(5) 0.0085(4) 0.0099(4) 0.0067(3) 0.0013(4) 0.0001(3)
Hg6 Hg0+ 0.0088(4) 0.0123(4) 0.0171(4) 0.0052(4) 0.0020(4) 0.0042(4)
Hg7 Hg0+ 0.0118(4) 0.0117(4) 0.0083(3) 0.0080(3) -0.0002(3) 0.0005(3)
Hg8 Hg0+ 0.0235(7) 0.0118(6) 0.0106(5) 0.0132(6) 0. 0.
Hg9 Hg0+ 0.0100(6) 0.0157(6) 0.0183(6) 0.0051(5) 0. 0.
Hg10 Hg0+ 0.0124(6) 0.0164(6) 0.0133(5) 0.0093(5) 0. 0.
Hg11 Hg0+ 0.0090(5) 0.0121(6) 0.0132(5) 0.0054(5) 0. 0.
Hg12 Hg0+ 0.0107(4) 0.0107(4) 0.0153(7) 0.0053(2) 0. 0.
Hg13 Hg0+ 0.0109(4) 0.0109(4) 0.0169(8) 0.0055(2) 0. 0.
Hg14 Hg0+ 0.0070(5) 0.0070(5) 0.0130(9) 0.0035(3) 0. 0.
Hg15 Hg0+ 0.0131(6) 0.0131(6) 0.0224(12) 0.0066(3) 0. 0.
#End of TTdata_173310-ICSD
#(C) 2018 by FIZ Karlsruhe - Leibniz Institute for Information Infrastructure.  All rights reserved.
data_244102-ICSD
_database_code_ICSD 244102
_audit_creation_date 2018-02-01
_chemical_name_systematic 'Mercury sodium (51.81/11.19)'
_chemical_formula_structural 'Hg51.81 Na11.19'
_chemical_formula_sum 'Hg51.81 Na11.19'
_exptl_crystal_density_diffrn 12.04
_cell_measurement_temperature 293.
_publ_section_title

;
Structural chemistry and number theory amalgamized: crystal structure of
Na11Hg52
;
loop_
_citation_id
_citation_journal_full
_citation_year
_citation_journal_volume
_citation_page_first
_citation_page_last
_citation_journal_id_ASTM
primary

;
Acta Crystallographica, Section B: Structural Science, Crystal Engineering and
Materials
; 2015 71 752 767 ACSBDA
loop_
_publ_author_name
'Hornfeck, Wolfgang'
'Hoch, Constantin'
_cell_length_a 39.703(2)
_cell_length_b 39.703(2)
_cell_length_c 9.6810(5)
_cell_angle_alpha 90.
_cell_angle_beta 90.
_cell_angle_gamma 120.
_cell_volume 13215.92
_cell_formula_units_Z 9
_symmetry_space_group_name_H-M 'P -6'
_symmetry_Int_Tables_number 174
_refine_ls_R_factor_all 0.0476
loop_
_symmetry_equiv_pos_site_id
_symmetry_equiv_pos_as_xyz
1 '-x+y, -x, -z'
2 '-y, x-y, -z'
3 'x, y, -z'
4 '-x+y, -x, z'
5 '-y, x-y, z'
6 'x, y, z'
loop_
_atom_type_symbol
_atom_type_oxidation_number
Hg0+ 0
Na0+ 0
Hg0+ 0
Na0+ 0
loop_
_atom_site_label
_atom_site_type_symbol
_atom_site_symmetry_multiplicity
_atom_site_Wyckoff_symbol
_atom_site_fract_x
_atom_site_fract_y
_atom_site_fract_z
_atom_site_B_iso_or_equiv
_atom_site_occupancy
_atom_site_attached_hydrogens
Hg1 Hg0+ 6 l 0.99235(10) 0.77700(11) 0.6584(5) 0.0286(10) 1 0
Hg2 Hg0+ 6 l 0.99191(11) 0.85495(12) 0.8348(6) 0.0421(13) 1 0
Hg3 Hg0+ 6 l 0.99049(10) 0.92151(9) 0.6544(6) 0.0540(13) 1 0
Hg4 Hg0+ 6 l 0.97477(9) 0.69454(9) 0.6522(5) 0.0377(10) 1 0
Hg5 Hg0+ 6 l 0.97421(11) 0.62889(10) 0.8381(5) 0.0374(11) 1 0
Hg6 Hg0+ 6 l 0.97449(10) 0.46641(11) 0.7376(5) 0.0381(11) 1 0
Hg7 Hg0+ 6 l 0.97410(11) 0.54952(11) 0.6805(6) 0.0388(12) 1 0
Hg8 Hg0+ 6 l 0.92856(12) 0.94222(12) 0.8226(5) 0.0505(12) 1 0
Hg9 Hg0+ 6 l 0.92104(9) 0.77471(10) 0.7390(6) 0.0356(8) 1 0
Hg10 Hg0+ 6 l 0.91526(11) 0.85382(12) 0.6949(5) 0.0396(12) 1 0
Hg11 Hg0+ 6 l 0.91234(12) 0.69717(11) 0.8364(5) 0.0365(11) 1 0
Hg12 Hg0+ 6 l 0.89764(10) 0.56197(10) 0.7369(4) 0.0367(10) 1 0
Hg13 Hg0+ 6 l 0.89183(10) 0.62874(10) 0.6560(4) 0.0374(10) 1 0
Hg14 Hg0+ 6 l 0.88388(11) 0.39430(11) 0.6958(5) 0.0388(10) 1 0
Hg15 Hg0+ 6 l 0.84889(11) 0.94138(10) 0.6551(5) 0.0362(11) 1 0
Hg16 Hg0+ 6 l 0.84603(9) 0.87103(10) 0.7380(4) 0.0399(10) 1 0
Hg17 Hg0+ 6 l 0.83238(12) 0.69859(12) 0.6809(6) 0.0405(12) 1 0
Hg18 Hg0+ 6 l 0.82797(11) 0.63294(12) 0.8489(6) 0.0741(15) 1 0
Hg19 Hg0+ 6 l 0.81838(11) 0.47697(11) 0.6958(6) 0.0387(13) 1 0
Hg20 Hg0+ 6 l 0.81695(12) 0.55248(13) 0.8237(6) 0.0513(13) 1 0
Hg21 Hg0+ 6 l 0.80163(10) 0.38827(11) 0.7395(4) 0.0379(11) 1 0
Hg22 Hg0+ 6 l 0.78276(10) 0.94137(10) 0.8467(5) 0.0412(11) 1 0
Hg23 Hg0+ 6 l 0.76619(11) 0.85966(11) 0.8415(5) 0.0408(11) 1 0
Hg24 Hg0+ 6 l 0.76634(11) 0.78704(11) 0.6985(6) 0.0404(12) 1 0
Hg25 Hg0+ 6 l 0.75792(12) 0.56291(12) 0.6540(5) 0.0428(12) 1 0
Hg26 Hg0+ 6 l 0.74904(10) 0.69742(10) 0.7370(5) 0.0394(9) 1 0
Hg27 Hg0+ 6 l 0.74832(11) 0.48247(12) 0.6533(6) 0.0501(13) 1 0
Hg28 Hg0+ 6 l 0.74462(11) 0.62044(11) 0.8267(5) 0.0455(11) 1 0
Hg29 Hg0+ 6 l 0.73892(12) 0.40908(13) 0.8373(6) 0.0404(12) 1 0
Hg30 Hg0+ 6 l 0.71734(10) 0.95885(10) 0.8438(5) 0.0316(10) 1 0
Hg31 Hg0+ 6 l 0.71696(11) 0.87773(12) 0.6632(5) 0.0357(11) 1 0
Hg32 Hg0+ 6 l 0.69627(11) 0.79310(10) 0.6517(6) 0.0569(13) 1 0
Hg33 Hg0+ 6 l 0.68932(13) 0.49163(12) 0.8247(6) 0.0480(13) 1 0
Hg34 Hg0+ 6 l 0.68755(11) 0.72003(11) 0.8391(5) 0.0378(10) 1 0
Hg35 Hg0+ 6 l 0.68004(10) 0.55829(10) 0.6535(5) 0.0507(11) 1 0
Hg36 Hg0+ 6 l 0.67613(11) 0.40407(12) 0.6550(5) 0.0334(11) 1 0
Hg37 Hg0+ 6 l 0.67528(10) 0.63316(10) 0.6550(5) 0.0326(10) 1 0
Hg38 Hg0+ 6 l 0.64866(10) 0.88770(10) 0.7623(5) 0.0349(10) 1 0
Hg39 Hg0+ 6 l 0.63813(11) 0.95849(11) 0.6622(5) 0.0342(11) 1 0
Hg40 Hg0+ 6 l 0.63563(11) 0.79818(11) 0.8189(6) 0.0425(12) 1 0
Hg41 Hg0+ 6 l 0.62378(11) 0.71305(12) 0.6630(5) 0.0343(11) 1 0
Hg42 Hg0+ 6 l 0.61783(12) 0.57013(11) 0.8338(6) 0.0372(12) 1 0
Hg43 Hg0+ 6 l 0.61495(9) 0.64364(10) 0.8466(5) 0.0364(10) 1 0
Hg44 Hg0+ 6 l 0.57050(11) 0.95942(11) 0.8497(6) 0.0560(14) 1 0
Hg45 Hg0+ 6 l 0.56471(11) 0.88305(11) 0.8002(6) 0.0396(12) 1 0
Hg46 Hg0+ 6 l 0.55128(11) 0.71499(11) 0.7611(5) 0.0363(11) 1 0
Hg47 Hg0+ 6 l 0.53747(11) 0.63894(10) 0.8431(5) 0.0336(10) 1 0
Hg48 Hg0+ 6 l 0.49887(12) 0.89511(12) 0.6596(5) 0.0377(11) 1 0
Hg49 Hg0+ 6 l 0.49018(12) 0.95129(11) 0.8370(5) 0.0363(12) 1 0
Hg50 Hg0+ 6 l 0.47981(12) 0.73361(11) 0.8034(6) 0.0425(13) 1 0
Hg51 Hg0+ 6 l 0.47568(12) 0.81082(11) 0.7631(5) 0.0395(11) 1 0
Hg52 Hg0+ 6 l 0.46657(12) 0.65152(11) 0.6647(6) 0.0387(12) 1 0
Hg53 Hg0+ 6 l 0.42179(10) 0.89032(9) 0.6537(5) 0.0411(12) 1 0
Hg54 Hg0+ 6 l 0.41667(10) 0.96289(11) 0.6573(5) 0.0315(10) 1 0
Hg55 Hg0+ 6 l 0.41136(11) 0.81954(12) 0.8455(5) 0.0380(11) 1 0
Hg56 Hg0+ 6 l 0.40591(10) 0.66386(11) 0.8457(6) 0.0548(14) 1 0
Hg57 Hg0+ 6 l 0.39757(12) 0.73393(12) 0.6750(6) 0.0461(12) 1 0
Hg58 Hg0+ 3 k 0.93377(15) 0.47102(17) 0.5 0.0396(15) 1 0
Hg59 Hg0+ 3 k 0.89315(17) 0.51691(15) 0.5 0.0448(15) 1 0
Hg60 Hg0+ 3 k 0.87974(15) 0.77723(17) 0.5 0.0391(14) 1 0
Hg61 Hg0+ 3 k 0.84688(16) 0.42996(16) 0.5 0.0432(16) 1 0
Hg62 Hg0+ 3 k 0.84226(17) 0.82615(16) 0.5 0.0504(16) 1 0
Hg63 Hg0+ 3 k 0.82627(13) 0.63184(13) 0.5 0.0442(14) 1 0
Hg64 Hg0+ 3 k 0.79305(13) 0.73933(15) 0.5 0.0464(15) 1 0
Hg65 Hg0+ 3 k 0.78286(12) 0.94119(12) 0.5 0.0311(13) 1 0
Hg66 Hg0+ 3 k 0.64273(15) 0.84006(16) 0.5 0.0497(17) 1 0
Hg67 Hg0+ 3 k 0.61540(12) 0.64423(13) 0.5 0.0306(14) 1 0
Hg68 Hg0+ 3 k 0.60329(16) 0.88485(15) 0.5 0.0465(16) 1 0
Hg69 Hg0+ 3 k 0.59773(17) 0.75998(15) 0.5 0.0449(16) 1 0
Hg70 Hg0+ 3 k 0.57052(14) 0.95747(15) 0.5 0.0446(17) 1 0
Hg71 Hg0+ 3 k 0.52209(15) 0.84475(17) 0.5 0.0447(16) 1 0
Hg72 Hg0+ 3 k 0.51319(17) 0.72536(16) 0.5 0.0422(15) 1 0
Hg73 Hg0+ 3 k 0.46806(19) 0.76163(19) 0.5 0.0598(19) 1 0
Hg74 Hg0+ 3 k 0.41040(15) 0.66870(16) 0.5 0.0494(17) 1 0
Hg75 Hg0+ 3 j 0.98614(15) 0.91821(14) 0. 0.0470(15) 1 0
Hg76 Hg0+ 3 j 0.97576(14) 0.51328(18) 0. 0.0545(17) 1 0
Hg77 Hg0+ 3 j 0.97511(12) 0.69400(12) 0. 0.0294(13) 1 0
Hg78 Hg0+ 3 j 0.9364(2) 0.55410(16) 0. 0.0610(18) 1 0
Hg79 Hg0+ 3 j 0.92555(17) 0.42890(17) 0. 0.0470(17) 1 0
Hg80 Hg0+ 3 j 0.91743(14) 0.81727(15) 0. 0.0417(14) 1 0
Hg81 Hg0+ 3 j 0.89246(17) 0.87180(16) 0. 0.0591(17) 1 0
Hg82 Hg0+ 3 j 0.87280(15) 0.73240(15) 0. 0.0430(14) 1 0
Hg83 Hg0+ 3 j 0.85232(19) 0.51655(17) 0. 0.0626(18) 1 0
Hg84 Hg0+ 3 j 0.84403(17) 0.38311(19) 0. 0.0608(19) 1 0
Hg85 Hg0+ 3 j 0.81340(16) 0.43589(17) 0. 0.0562(17) 1 0
Hg86 Hg0+ 3 j 0.80707(15) 0.82517(14) 0. 0.0485(14) 1 0
Hg87 Hg0+ 3 j 0.79188(15) 0.69165(15) 0. 0.0570(17) 1 0
Hg88 Hg0+ 3 j 0.76034(13) 0.74478(15) 0. 0.0499(14) 1 0
Hg89 Hg0+ 3 j 0.7560(3) 0.5604(3) 0. 0.033(5) 0.45(2) 0
Na1 Na0+ 3 j 0.7560(3) 0.5604(3) 0. 0.0324(15) 0.55(2) 0
Hg90 Hg0+ 3 j 0.75293(17) 0.48087(16) 0. 0.0413(15) 1 0
Hg91 Hg0+ 3 j 0.69857(14) 0.79222(13) 0. 0.0427(14) 1 0
Hg92 Hg0+ 3 j 0.67457(14) 0.55382(14) 0. 0.0393(14) 1 0
Hg93 Hg0+ 3 j 0.60429(15) 0.84677(16) 0. 0.0445(16) 1 0
Hg94 Hg0+ 3 j 0.55698(16) 0.76001(16) 0. 0.0396(15) 1 0
Hg95 Hg0+ 3 j 0.51755(16) 0.80762(18) 0. 0.0469(17) 1 0
Hg96 Hg0+ 3 j 0.42191(12) 0.89017(12) 0. 0.0297(15) 1 0
Hg97 Hg0+ 2 h 0.3333 0.6667 0.8509(10) 0.044(2) 1 0
Hg98 Hg0+ 2 i 0.6667 0.3333 0.8469(10) 0.048(2) 1 0
Hg99 Hg0+ 2 g 0. 0. 0.6532(10) 0.044(2) 1 0
Hg100 Hg0+ 1 d 0.3333 0.6667 0.5 0.056(3) 1 0
Hg101 Hg0+ 1 f 0.6667 0.3333 0.5 0.030(2) 1 0
Hg102 Hg0+ 1 a 0. 0. 0. 0.053(3) 1 0
Na2 Na0+ 6 l 0.8930(9) 0.4743(10) 0.800(4) 0.0324(15) 1 0
Na3 Na0+ 6 l 0.8382(10) 0.7783(10) 0.801(4) 0.0324(15) 1 0
Na4 Na0+ 6 l 0.5610(9) 0.8047(10) 0.695(4) 0.0324(15) 1 0
Na5 Na0+ 3 k 0.9732(11) 0.8389(12) 0.5 0.0324(15) 1 0
Na6 Na0+ 3 k 0.9593(12) 0.6147(13) 0.5 0.0324(15) 1 0
Na7 Na0+ 3 k 0.9098(11) 0.7128(13) 0.5 0.0324(15) 1 0
Na8 Na0+ 3 k 0.9155(11) 0.9257(12) 0.5 0.0324(15) 1 0
Na9 Na0+ 3 k 0.8282(12) 0.5487(13) 0.5 0.0324(15) 1 0
Na10 Na0+ 3 k 0.7824(11) 0.8583(12) 0.5 0.0324(15) 1 0
Na11 Na0+ 3 k 0.7539(13) 0.4073(14) 0.5 0.0324(15) 1 0
Na12 Na0+ 3 k 0.7488(11) 0.6353(12) 0.5 0.0324(15) 1 0
Na13 Na0+ 3 k 0.7023(13) 0.9444(13) 0.5 0.0324(15) 1 0
Na14 Na0+ 3 k 0.7005(13) 0.7213(14) 0.5 0.0324(15) 1 0
Na15 Na0+ 3 k 0.6713(12) 0.4813(12) 0.5 0.0324(15) 1 0
Na16 Na0+ 3 k 0.6051(12) 0.5570(13) 0.5 0.0324(15) 1 0
Na17 Na0+ 3 k 0.5402(12) 0.6557(13) 0.5 0.0324(15) 1 0
Na18 Na0+ 3 k 0.4932(13) 0.9689(14) 0.5 0.0324(15) 1 0
Na19 Na0+ 3 k 0.4213(13) 0.8161(14) 0.5 0.0324(15) 1 0
Na20 Na0+ 3 j 0.9760(12) 0.7750(12) 0. 0.0324(15) 1 0
Na21 Na0+ 3 j 0.8915(12) 0.6160(13) 0. 0.0324(15) 1 0
Na22 Na0+ 3 j 0.8505(11) 0.9282(12) 0. 0.0324(15) 1 0
Na23 Na0+ 3 j 0.6986(12) 0.8756(13) 0. 0.0324(15) 1 0
Na24 Na0+ 3 j 0.6912(11) 0.6488(12) 0. 0.0324(15) 1 0
Na25 Na0+ 3 j 0.6632(13) 0.4074(14) 0. 0.0324(15) 1 0
Na26 Na0+ 3 j 0.6367(12) 0.9474(12) 0. 0.0324(15) 1 0
Na27 Na0+ 3 j 0.6099(12) 0.7171(12) 0. 0.0324(15) 1 0
Na28 Na0+ 3 j 0.4974(12) 0.8806(13) 0. 0.0324(15) 1 0
Na29 Na0+ 3 j 0.4819(12) 0.6672(13) 0. 0.0324(15) 1 0
Na30 Na0+ 3 j 0.4329(13) 0.9756(13) 0. 0.0324(15) 1 0
Na31 Na0+ 3 j 0.4162(12) 0.7459(13) 0. 0.0324(15) 1 0
loop_
_atom_site_aniso_label
_atom_site_aniso_type_symbol
_atom_site_aniso_U_11
_atom_site_aniso_U_22
_atom_site_aniso_U_33
_atom_site_aniso_U_12
_atom_site_aniso_U_13
_atom_site_aniso_U_23
Hg1 Hg0+ 0.0253(19) 0.037(2) 0.025(2) 0.0174(17) 0.0004(17) -0.0016(19)
Hg2 Hg0+ 0.028(2) 0.039(2) 0.050(4) 0.0102(17) 0.0042(19) 0.009(2)
Hg3 Hg0+ 0.043(2) 0.0345(19) 0.085(4) 0.0193(17) -0.002(2) 0.001(2)
Hg4 Hg0+ 0.0346(19) 0.0364(19) 0.044(3) 0.0188(15) -0.0027(17) -0.0027(18)
Hg5 Hg0+ 0.034(2) 0.032(2) 0.041(3) 0.0122(16) 0.0069(18) -0.0009(19)
Hg6 Hg0+ 0.035(2) 0.044(2) 0.038(3) 0.0215(19) 0.000(2) 0.003(2)
Hg7 Hg0+ 0.031(2) 0.034(2) 0.047(3) 0.0139(18) -0.004(2) -0.003(2)
Hg8 Hg0+ 0.045(2) 0.051(2) 0.047(3) 0.0167(19) 0.006(2) 0.002(2)
Hg9 Hg0+ 0.035(2) 0.045(2) 0.033(2) 0.025(2) -0.0013(19) -0.0014(19)
Hg10 Hg0+ 0.032(2) 0.042(2) 0.049(3) 0.0216(17) 0.0057(19) 0.005(2)
Hg11 Hg0+ 0.045(2) 0.0310(19) 0.036(3) 0.0211(17) -0.001(2) -0.0055(19)
Hg12 Hg0+ 0.043(2) 0.0332(19) 0.035(3) 0.0204(17) -0.0018(19) -0.0031(18)
Hg13 Hg0+ 0.045(2) 0.0264(17) 0.040(3) 0.0168(15) -0.0032(19) -0.0014(17)
Hg14 Hg0+ 0.0330(19) 0.035(2) 0.052(3) 0.0199(17) -0.0026(19) -0.007(2)
Hg15 Hg0+ 0.043(2) 0.038(2) 0.036(3) 0.0266(18) -0.0054(19) -0.0032(19)
Hg16 Hg0+ 0.045(2) 0.041(2) 0.040(3) 0.0257(18) 0.0031(18) 0.0022(18)
Hg17 Hg0+ 0.040(2) 0.033(2) 0.050(3) 0.0197(17) 0.004(2) 0.001(2)
Hg18 Hg0+ 0.039(2) 0.064(3) 0.116(5) 0.0228(19) 0.008(2) 0.035(3)
Hg19 Hg0+ 0.030(2) 0.035(2) 0.050(4) 0.0159(18) -0.007(2) 0.000(2)
Hg20 Hg0+ 0.037(2) 0.065(3) 0.053(3) 0.026(2) -0.004(2) -0.016(2)
Hg21 Hg0+ 0.0283(19) 0.039(2) 0.042(3) 0.0131(17) 0.0036(18) -0.0021(19)
Hg22 Hg0+ 0.039(2) 0.037(2) 0.046(3) 0.0178(17) -0.0015(19) -0.0021(19)
Hg23 Hg0+ 0.045(2) 0.047(2) 0.042(3) 0.0310(18) -0.003(2) -0.002(2)
Hg24 Hg0+ 0.034(2) 0.034(2) 0.053(3) 0.0174(17) -0.002(2) -0.001(2)
Hg25 Hg0+ 0.049(2) 0.049(2) 0.043(3) 0.0331(18) 0.001(2) 0.000(2)
Hg26 Hg0+ 0.0375(19) 0.0318(18) 0.039(3) 0.0096(16) 0.0002(19) 0.0007(18)
Hg27 Hg0+ 0.035(2) 0.041(2) 0.067(4) 0.0140(19) 0.000(2) 0.002(2)
Hg28 Hg0+ 0.054(2) 0.043(2) 0.049(3) 0.031(2) -0.007(2) -0.004(2)
Hg29 Hg0+ 0.034(2) 0.050(3) 0.041(4) 0.024(2) 0.003(2) 0.006(2)
Hg30 Hg0+ 0.0296(19) 0.0299(19) 0.032(3) 0.0120(16) 0.0012(18) -0.0022(18)
Hg31 Hg0+ 0.036(2) 0.048(2) 0.030(3) 0.0261(19) -0.0022(19) 0.003(2)
Hg32 Hg0+ 0.048(2) 0.041(2) 0.079(4) 0.0203(18) 0.018(2) 0.003(2)
Hg33 Hg0+ 0.048(2) 0.044(2) 0.044(4) 0.017(2) -0.003(3) -0.002(2)
Hg34 Hg0+ 0.0293(19) 0.044(2) 0.040(3) 0.0186(17) -0.0014(19) 0.001(2)
Hg35 Hg0+ 0.0373(19) 0.0355(19) 0.072(3) 0.0131(16) 0.002(2) -0.001(2)
Hg36 Hg0+ 0.034(2) 0.039(2) 0.032(3) 0.0225(19) 0.001(2) -0.001(2)
Hg37 Hg0+ 0.0262(18) 0.037(2) 0.031(3) 0.0130(16) 0.0012(17) 0.0049(18)
Hg38 Hg0+ 0.026(2) 0.036(2) 0.030(3) 0.0062(17) -0.0006(18) -0.0014(19)
Hg39 Hg0+ 0.040(2) 0.030(2) 0.030(3) 0.0159(17) 0.0004(19) -0.0011(19)
Hg40 Hg0+ 0.038(2) 0.040(2) 0.049(3) 0.0190(19) 0.005(2) 0.001(2)
Hg41 Hg0+ 0.035(2) 0.044(2) 0.030(3) 0.0242(18) -0.0057(19) 0.001(2)
Hg42 Hg0+ 0.036(2) 0.036(2) 0.035(3) 0.0145(17) 0.0071(19) 0.0033(19)
Hg43 Hg0+ 0.0339(18) 0.035(2) 0.041(3) 0.0177(16) -0.0014(18) -0.0037(18)
Hg44 Hg0+ 0.032(2) 0.043(2) 0.090(5) 0.0167(18) 0.004(2) 0.015(2)
Hg45 Hg0+ 0.031(2) 0.037(2) 0.049(4) 0.0153(19) -0.002(2) -0.002(2)
Hg46 Hg0+ 0.047(2) 0.038(2) 0.029(3) 0.0252(19) 0.006(2) 0.0044(19)
Hg47 Hg0+ 0.036(2) 0.029(2) 0.038(3) 0.0183(17) 0.001(2) -0.0041(18)
Hg48 Hg0+ 0.049(2) 0.046(2) 0.028(3) 0.031(2) -0.002(2) -0.0008(19)
Hg49 Hg0+ 0.042(2) 0.034(2) 0.036(3) 0.0216(18) 0.005(2) 0.000(2)
Hg50 Hg0+ 0.040(2) 0.033(2) 0.058(4) 0.021(2) -0.002(2) 0.001(2)
Hg51 Hg0+ 0.041(2) 0.052(2) 0.031(3) 0.028(2) 0.0019(19) 0.000(2)
Hg52 Hg0+ 0.036(2) 0.032(2) 0.040(3) 0.0106(17) 0.002(2) 0.002(2)
Hg53 Hg0+ 0.039(2) 0.038(2) 0.047(4) 0.0205(17) -0.0017(19) -0.0016(19)
Hg54 Hg0+ 0.0274(19) 0.032(2) 0.031(3) 0.0112(16) -0.0011(18) 0.0020(18)
Hg55 Hg0+ 0.035(2) 0.046(2) 0.037(3) 0.0236(19) 0.000(2) 0.000(2)
Hg56 Hg0+ 0.032(2) 0.051(2) 0.084(4) 0.0220(19) 0.000(2) -0.001(2)
Hg57 Hg0+ 0.040(2) 0.045(2) 0.040(3) 0.0114(19) 0.005(2) 0.001(2)
Hg58 Hg0+ 0.030(3) 0.060(3) 0.038(4) 0.029(3) 0. 0.
Hg59 Hg0+ 0.074(4) 0.040(3) 0.037(4) 0.041(3) 0. 0.
Hg60 Hg0+ 0.033(3) 0.061(3) 0.039(4) 0.035(3) 0. 0.
Hg61 Hg0+ 0.029(3) 0.043(3) 0.041(5) 0.005(2) 0. 0.
Hg62 Hg0+ 0.078(4) 0.051(3) 0.042(4) 0.047(3) 0. 0.
Hg63 Hg0+ 0.030(3) 0.038(3) 0.070(5) 0.021(2) 0. 0.
Hg64 Hg0+ 0.025(3) 0.056(3) 0.036(4) 0.004(2) 0. 0.
Hg65 Hg0+ 0.026(2) 0.022(2) 0.047(4) 0.013(2) 0. 0.
Hg66 Hg0+ 0.034(3) 0.040(3) 0.058(5) 0.006(2) 0. 0.
Hg67 Hg0+ 0.022(2) 0.029(3) 0.046(4) 0.017(2) 0. 0.
Hg68 Hg0+ 0.041(3) 0.033(3) 0.052(5) 0.008(2) 0. 0.
Hg69 Hg0+ 0.048(3) 0.035(3) 0.054(5) 0.023(3) 0. 0.
Hg70 Hg0+ 0.027(3) 0.048(3) 0.058(5) 0.018(2) 0. 0.
Hg71 Hg0+ 0.037(3) 0.062(4) 0.043(4) 0.030(3) 0. 0.
Hg72 Hg0+ 0.047(3) 0.043(3) 0.045(5) 0.029(3) 0. 0.
Hg73 Hg0+ 0.071(4) 0.066(4) 0.065(6) 0.051(4) 0. 0.
Hg74 Hg0+ 0.042(3) 0.048(3) 0.066(6) 0.029(3) 0. 0.
Hg75 Hg0+ 0.052(3) 0.042(3) 0.056(5) 0.029(3) 0. 0.
Hg76 Hg0+ 0.034(3) 0.068(4) 0.057(5) 0.021(3) 0. 0.
Hg77 Hg0+ 0.026(2) 0.024(2) 0.037(4) 0.0116(19) 0. 0.
Hg78 Hg0+ 0.094(4) 0.042(3) 0.055(5) 0.039(3) 0. 0.
Hg79 Hg0+ 0.048(3) 0.054(3) 0.051(5) 0.034(3) 0. 0.
Hg80 Hg0+ 0.035(3) 0.045(3) 0.047(4) 0.021(2) 0. 0.
Hg81 Hg0+ 0.072(4) 0.057(3) 0.065(5) 0.044(3) 0. 0.
Hg82 Hg0+ 0.041(3) 0.041(3) 0.055(4) 0.027(2) 0. 0.
Hg83 Hg0+ 0.084(4) 0.046(3) 0.057(5) 0.032(3) 0. 0.
Hg84 Hg0+ 0.047(3) 0.068(4) 0.060(5) 0.023(3) 0. 0.
Hg85 Hg0+ 0.048(3) 0.061(4) 0.050(5) 0.020(3) 0. 0.
Hg86 Hg0+ 0.066(3) 0.045(3) 0.042(4) 0.034(3) 0. 0.
Hg87 Hg0+ 0.039(3) 0.048(3) 0.072(5) 0.014(2) 0. 0.
Hg88 Hg0+ 0.031(3) 0.063(3) 0.046(4) 0.016(2) 0. 0.
Hg89 Hg0+ 0.040(7) 0.036(7) 0.032(9) 0.027(5) 0. 0.
Na1 Na0+ 0.026(4) 0.040(4) 0.032(4) 0.016(4) 0.013(11) 0.014(12)
Hg90 Hg0+ 0.047(3) 0.034(3) 0.043(5) 0.021(3) 0. 0.
Hg91 Hg0+ 0.045(3) 0.033(3) 0.047(4) 0.017(2) 0. 0.
Hg92 Hg0+ 0.036(3) 0.042(3) 0.049(4) 0.026(2) 0. 0.
Hg93 Hg0+ 0.040(3) 0.040(3) 0.034(4) 0.005(3) 0. 0.
Hg94 Hg0+ 0.054(3) 0.035(3) 0.037(4) 0.027(3) 0. 0.
Hg95 Hg0+ 0.042(3) 0.067(4) 0.045(5) 0.037(3) 0. 0.
Hg96 Hg0+ 0.021(3) 0.028(3) 0.042(5) 0.014(2) 0. 0.
Hg97 Hg0+ 0.036(2) 0.036(2) 0.060(6) 0.0180(12) 0. 0.
Hg98 Hg0+ 0.042(2) 0.042(2) 0.060(7) 0.0208(12) 0. 0.
Hg99 Hg0+ 0.036(2) 0.036(2) 0.060(6) 0.0182(12) 0. 0.
Hg100 Hg0+ 0.043(4) 0.043(4) 0.081(10) 0.0215(19) 0. 0.
Hg101 Hg0+ 0.027(3) 0.027(3) 0.038(8) 0.0133(15) 0. 0.
Hg102 Hg0+ 0.049(3) 0.049(3) 0.061(7) 0.0246(17) 0. 0.
Na2 Na0+ 0.026(4) 0.040(4) 0.032(4) 0.016(4) 0.013(11) 0.014(12)
Na3 Na0+ 0.026(4) 0.040(4) 0.032(4) 0.016(4) 0.013(11) 0.014(12)
Na4 Na0+ 0.026(4) 0.040(4) 0.032(4) 0.016(4) 0.013(11) 0.014(12)
Na5 Na0+ 0.026(4) 0.040(4) 0.032(4) 0.016(4) 0.013(11) 0.014(12)
Na6 Na0+ 0.026(4) 0.040(4) 0.032(4) 0.016(4) 0.013(11) 0.014(12)
Na7 Na0+ 0.026(4) 0.040(4) 0.032(4) 0.016(4) 0.013(11) 0.014(12)
Na8 Na0+ 0.026(4) 0.040(4) 0.032(4) 0.016(4) 0.013(11) 0.014(12)
Na9 Na0+ 0.026(4) 0.040(4) 0.032(4) 0.016(4) 0.013(11) 0.014(12)
Na10 Na0+ 0.026(4) 0.040(4) 0.032(4) 0.016(4) 0.013(11) 0.014(12)
Na11 Na0+ 0.026(4) 0.040(4) 0.032(4) 0.016(4) 0.013(11) 0.014(12)
Na12 Na0+ 0.026(4) 0.040(4) 0.032(4) 0.016(4) 0.013(11) 0.014(12)
Na13 Na0+ 0.026(4) 0.040(4) 0.032(4) 0.016(4) 0.013(11) 0.014(12)
Na14 Na0+ 0.026(4) 0.040(4) 0.032(4) 0.016(4) 0.013(11) 0.014(12)
Na15 Na0+ 0.026(4) 0.040(4) 0.032(4) 0.016(4) 0.013(11) 0.014(12)
Na16 Na0+ 0.026(4) 0.040(4) 0.032(4) 0.016(4) 0.013(11) 0.014(12)
Na17 Na0+ 0.026(4) 0.040(4) 0.032(4) 0.016(4) 0.013(11) 0.014(12)
Na18 Na0+ 0.026(4) 0.040(4) 0.032(4) 0.016(4) 0.013(11) 0.014(12)
Na19 Na0+ 0.026(4) 0.040(4) 0.032(4) 0.016(4) 0.013(11) 0.014(12)
Na20 Na0+ 0.026(4) 0.040(4) 0.032(4) 0.016(4) 0.013(11) 0.014(12)
Na21 Na0+ 0.026(4) 0.040(4) 0.032(4) 0.016(4) 0.013(11) 0.014(12)
Na22 Na0+ 0.026(4) 0.040(4) 0.032(4) 0.016(4) 0.013(11) 0.014(12)
Na23 Na0+ 0.026(4) 0.040(4) 0.032(4) 0.016(4) 0.013(11) 0.014(12)
Na24 Na0+ 0.026(4) 0.040(4) 0.032(4) 0.016(4) 0.013(11) 0.014(12)
Na25 Na0+ 0.026(4) 0.040(4) 0.032(4) 0.016(4) 0.013(11) 0.014(12)
Na26 Na0+ 0.026(4) 0.040(4) 0.032(4) 0.016(4) 0.013(11) 0.014(12)
Na27 Na0+ 0.026(4) 0.040(4) 0.032(4) 0.016(4) 0.013(11) 0.014(12)
Na28 Na0+ 0.026(4) 0.040(4) 0.032(4) 0.016(4) 0.013(11) 0.014(12)
Na29 Na0+ 0.026(4) 0.040(4) 0.032(4) 0.016(4) 0.013(11) 0.014(12)
Na30 Na0+ 0.026(4) 0.040(4) 0.032(4) 0.016(4) 0.013(11) 0.014(12)
Na31 Na0+ 0.026(4) 0.040(4) 0.032(4) 0.016(4) 0.013(11) 0.014(12)
#End of TTdata_244102-ICSD
#(C) 2018 by FIZ Karlsruhe - Leibniz Institute for Information Infrastructure.  All rights reserved.
data_24143-ICSD
_database_code_ICSD 24143
_audit_creation_date 1986-09-23
_audit_update_record 2016-02-01
_chemical_name_systematic 'Dilithium peroxide'
_chemical_formula_structural 'Li2 O2'
_chemical_formula_sum 'Li2 O2'
_exptl_crystal_density_diffrn 2.3
_publ_section_title 'Ueber die Kristallstruktur des Lithiumperoxyds, Li2 O2'
loop_
_citation_id
_citation_journal_full
_citation_year
_citation_journal_volume
_citation_page_first
_citation_page_last
_citation_journal_id_ASTM
primary 'Chemische Berichte' 1953 86 1429 1437 CHBEAM
loop_
_publ_author_name
'Feher, F.'
'von Wilucki, I.'
'Dost, G.'
_cell_length_a 6.305
_cell_length_b 6.305
_cell_length_c 7.71
_cell_angle_alpha 90.
_cell_angle_beta 90.
_cell_angle_gamma 120.
_cell_volume 265.43
_cell_formula_units_Z 8
_symmetry_space_group_name_H-M 'P -6'
_symmetry_Int_Tables_number 174
loop_
_symmetry_equiv_pos_site_id
_symmetry_equiv_pos_as_xyz
1 '-x+y, -x, -z'
2 '-y, x-y, -z'
3 'x, y, -z'
4 '-x+y, -x, z'
5 '-y, x-y, z'
6 'x, y, z'
loop_
_atom_type_symbol
_atom_type_oxidation_number
Li1+ 1
O1- -1
loop_
_atom_site_label
_atom_site_type_symbol
_atom_site_symmetry_multiplicity
_atom_site_Wyckoff_symbol
_atom_site_fract_x
_atom_site_fract_y
_atom_site_fract_z
_atom_site_B_iso_or_equiv
_atom_site_occupancy
_atom_site_attached_hydrogens
Li1 Li1+ 2 g 0 0 0.158 . 1. 0
Li2 Li1+ 2 i 0.6667 0.3333 0.342 . 1. 0
Li3 Li1+ 6 l 0.5 0.5 0.158 . 1. 0
Li4 Li1+ 6 l 0.1667 0.8333 0.342 . 1. 0
O1 O1- 2 g 0 0 0.417 . 1. 0
O2 O1- 2 i 0.6667 0.3333 0.083 . 1. 0
O3 O1- 6 l 0.5 0.5 0.417 . 1. 0
O4 O1- 6 l 0.1667 0.8333 0.083 . 1. 0
#End of TTdata_24143-ICSD