
#(C) 2017 by FIZ Karlsruhe - Leibniz Institute for Information Infrastructure.  All rights reserved.
data_9873-ICSD
_database_code_ICSD 9873
_audit_creation_date 1986-09-29
_audit_update_record 2004-04-01
_chemical_name_systematic 'Thallium fluoride'
_chemical_formula_structural 'Tl F'
_chemical_formula_sum 'F1 Tl1'
_exptl_crystal_density_diffrn 8.58
_publ_section_title 'The crystal structure of thallous fluoride'
loop_
_citation_id
_citation_journal_full
_citation_year
_citation_journal_volume
_citation_page_first
_citation_page_last
_citation_journal_id_ASTM
primary 'Acta Crystallographica A (24,1968-38,1982)' 1969 25 S101 S101 ACACBN
loop_
_publ_author_name
'Alcock, N.W.'
_cell_length_a 5.175
_cell_length_b 6.092
_cell_length_c 5.488
_cell_angle_alpha 90.
_cell_angle_beta 90.
_cell_angle_gamma 90.
_cell_volume 173.02
_cell_formula_units_Z 4
_symmetry_space_group_name_H-M 'P m a 2'
_symmetry_Int_Tables_number 28
_refine_ls_R_factor_all 0.101
loop_
_symmetry_equiv_pos_site_id
_symmetry_equiv_pos_as_xyz
1 'x+1/2, -y, z'
2 '-x+1/2, y, z'
3 '-x, -y, z'
4 'x, y, z'
loop_
_atom_type_symbol
_atom_type_oxidation_number
Tl1+ 1
F1- -1
loop_
_atom_site_label
_atom_site_type_symbol
_atom_site_symmetry_multiplicity
_atom_site_Wyckoff_symbol
_atom_site_fract_x
_atom_site_fract_y
_atom_site_fract_z
_atom_site_B_iso_or_equiv
_atom_site_occupancy
_atom_site_attached_hydrogens
Tl1 Tl1+ 2 c 0.25 0 0.242 . 1. 0
Tl2 Tl1+ 2 c 0.25 0.488 0.734 . 1. 0
F1 F1- 2 c 0.25 0.53 0.194 . 1. 0
F2 F1- 2 c 0.25 0.862 0.666 . 1. 0
#End of TTdata_9873-ICSD