
#(C) 2017 by FIZ Karlsruhe - Leibniz Institute for Information Infrastructure.  All rights reserved.
data_165253-ICSD
_database_code_ICSD 165253
_audit_creation_date 2010-02-01
_chemical_name_systematic 'Titanium nickel silicide (1/1/1)'
_chemical_formula_structural 'Ti Ni Si'
_chemical_formula_sum 'Ni1 Si1 Ti1'
_chemical_name_structure_type TiNiSi-MgSrSi
_exptl_crystal_density_diffrn 5.68
_publ_section_title 'The Ti Ni Si family of compounds: structure and bonding'
loop_
_citation_id
_citation_journal_full
_citation_year
_citation_journal_volume
_citation_page_first
_citation_page_last
_citation_journal_id_ASTM
primary 'Inorganic Chemistry' 1998 37 5754 5763 INOCAJ
loop_
_publ_author_name
'Landrum, G.A.'
'Hoffmann, R.'
'Evers, J.'
'Boysen, H.'
_cell_length_a 6.139(2)
_cell_length_b 3.661(1)
_cell_length_c 7.006(2)
_cell_angle_alpha 90.
_cell_angle_beta 90.
_cell_angle_gamma 90.
_cell_volume 157.46
_cell_formula_units_Z 4
_symmetry_space_group_name_H-M 'P n m a'
_symmetry_Int_Tables_number 62
_refine_ls_R_factor_all 0.0726
loop_
_symmetry_equiv_pos_site_id
_symmetry_equiv_pos_as_xyz
1 'x+1/2, y, -z+1/2'
2 'x, -y+1/2, z'
3 '-x+1/2, y+1/2, z+1/2'
4 '-x, -y, -z'
5 '-x+1/2, -y, z+1/2'
6 '-x, y+1/2, -z'
7 'x+1/2, -y+1/2, -z+1/2'
8 'x, y, z'
loop_
_atom_type_symbol
_atom_type_oxidation_number
Ti0+ 0
Ni0+ 0
Si0+ 0
loop_
_atom_site_label
_atom_site_type_symbol
_atom_site_symmetry_multiplicity
_atom_site_Wyckoff_symbol
_atom_site_fract_x
_atom_site_fract_y
_atom_site_fract_z
_atom_site_B_iso_or_equiv
_atom_site_occupancy
_atom_site_attached_hydrogens
Ti1 Ti0+ 4 c 0.0211(7) 0.25 0.6816(5) . 1. 0
Ni1 Ni0+ 4 c 0.1417(4) 0.25 0.0595(5) . 1. 0
Si1 Si0+ 4 c 0.2654(12) 0.25 0.3764(8) . 1. 0
#End of TTdata_165253-ICSD