
#(C) 2017 by FIZ Karlsruhe - Leibniz Institute for Information Infrastructure.  All rights reserved.
data_69495-ICSD
_database_code_ICSD 69495
_audit_creation_date 1992-08-20
_chemical_name_systematic 'Bismuth(II) sulfide'
_chemical_formula_structural 'Bi S'
_chemical_formula_sum 'Bi1 S1'
_exptl_crystal_density_diffrn 3.98
_publ_section_title

;
Structure and electrical transport properties of the misfit-layer compound
(BiS)1.08TaS2
;
loop_
_citation_id
_citation_journal_full
_citation_year
_citation_journal_volume
_citation_page_first
_citation_page_last
_citation_journal_id_ASTM
primary 'Synthetic metals' 1990 39 1 12 SYMEDZ
loop_
_publ_author_name
'Wulff, J.'
'Meetsma, A.'
'Haange, R.J.'
'de Boer, J.L.'
'Wiegers, G.A.'
_cell_length_a 6.101(1)
_cell_length_b 5.724(1)
_cell_length_c 23.066(8)
_cell_angle_alpha 90.
_cell_angle_beta 90.
_cell_angle_gamma 90.
_cell_volume 805.51
_cell_formula_units_Z 8
_symmetry_space_group_name_H-M 'F m 2 m'
_symmetry_Int_Tables_number 42
_refine_ls_R_factor_all 0.115
loop_
_symmetry_equiv_pos_site_id
_symmetry_equiv_pos_as_xyz
1 'x, y, -z'
2 '-x, y, z'
3 '-x, y, -z'
4 'x, y, z'
5 'x, y+1/2, -z+1/2'
6 '-x, y+1/2, z+1/2'
7 '-x, y+1/2, -z+1/2'
8 'x, y+1/2, z+1/2'
9 'x+1/2, y, -z+1/2'
10 '-x+1/2, y, z+1/2'
11 '-x+1/2, y, -z+1/2'
12 'x+1/2, y, z+1/2'
13 'x+1/2, y+1/2, -z'
14 '-x+1/2, y+1/2, z'
15 '-x+1/2, y+1/2, -z'
16 'x+1/2, y+1/2, z'
loop_
_atom_type_symbol
_atom_type_oxidation_number
Bi2+ 2
S2- -2
loop_
_atom_site_label
_atom_site_type_symbol
_atom_site_symmetry_multiplicity
_atom_site_Wyckoff_symbol
_atom_site_fract_x
_atom_site_fract_y
_atom_site_fract_z
_atom_site_B_iso_or_equiv
_atom_site_occupancy
_atom_site_attached_hydrogens
Bi1 Bi2+ 8 d 0 0 0.3162 . 0.70(3) 0
Bi2 Bi2+ 16 e 0.08 0 0.182 . 0.15(1) 0
S1 S2- 8 d 0 0.015 0.208 . 1. 0
#End of TTdata_69495-ICSD