
#(C) 2017 by FIZ Karlsruhe - Leibniz Institute for Information Infrastructure.  All rights reserved.
data_155017-ICSD
_database_code_ICSD 155017
_audit_creation_date 2007-04-01
_audit_update_record 2016-02-01
_chemical_name_systematic 'Niobium oxide (12/29)- LT'
_chemical_formula_structural 'Nb12 O29'
_chemical_formula_sum 'Nb12 O29'
_chemical_name_structure_type Nb12O29
_exptl_crystal_density_diffrn 4.58
_cell_measurement_temperature 2.
_publ_section_title 'Structure and electronic properties of monoclinic Nb12 O29'
loop_
_citation_id
_citation_journal_full
_citation_year
_citation_journal_volume
_citation_page_first
_citation_page_last
_citation_journal_id_ASTM
primary 'Journal of Physics F' 2004 65 79 86 JPFMAT
loop_
_publ_author_name
'Waldron, J.E.L.'
'Green, M.A.'
'Neumann, D.A.'
_cell_length_a 15.6920(1)
_cell_length_b 3.8303(2)
_cell_length_c 20.7171(9)
_cell_angle_alpha 90.
_cell_angle_beta 113.112(3)
_cell_angle_gamma 90.
_cell_volume 1145.26
_cell_formula_units_Z 2
_symmetry_space_group_name_H-M 'A 1 m 1'
_symmetry_Int_Tables_number 8
_refine_ls_R_factor_all 0.0877
loop_
_symmetry_equiv_pos_site_id
_symmetry_equiv_pos_as_xyz
1 'x, -y, z'
2 'x, y, z'
3 'x, -y+1/2, z+1/2'
4 'x, y+1/2, z+1/2'
loop_
_atom_type_symbol
_atom_type_oxidation_number
Nb4+ 4.83
O2- -2
loop_
_atom_site_label
_atom_site_type_symbol
_atom_site_symmetry_multiplicity
_atom_site_Wyckoff_symbol
_atom_site_fract_x
_atom_site_fract_y
_atom_site_fract_z
_atom_site_B_iso_or_equiv
_atom_site_occupancy
_atom_site_attached_hydrogens
Nb1 Nb4+ 2 a 0.115(1) 0 0.071(1) 0.0113(8) 1. 0
Nb2 Nb4+ 2 a 0.091(2) 0 0.685(1) 0.0113(8) 1. 0
Nb3 Nb4+ 2 a 0.094(2) 0 0.884(1) 0.0113(8) 1. 0
Nb4 Nb4+ 2 a 0.354(2) 0 0.144(1) 0.0113(8) 1. 0
Nb5 Nb4+ 2 a 0.358(1) 0 0.766(1) 0.0113(8) 1. 0
Nb6 Nb4+ 2 a 0.364(2) 0 0.963(1) 0.0113(8) 1. 0
Nb7 Nb4+ 2 a 0.908(1) 0 0.936(1) 0.0113(8) 1. 0
Nb8 Nb4+ 2 a 0.893(1) 0 0.296(1) 0.0113(8) 1. 0
Nb9 Nb4+ 2 a 0.911(2) 0 0.118(1) 0.0113(8) 1. 0
Nb10 Nb4+ 2 a 0.634(1) 0 0.858(1) 0.0113(8) 1. 0
Nb11 Nb4+ 2 a 0.627(1) 0 0.220(1) 0.0113(8) 1. 0
Nb12 Nb4+ 2 a 0.619(1) 0 0.037(2) 0.0113(8) 1. 0
O1 O2- 2 a 0.481(1) 0 -0.006(1) 0.0042(5) 1. 0
O2 O2- 2 a 0.078(2) 0 0.172(1) 0.0042(5) 1. 0
O3 O2- 2 a 0.078(2) 0 0.375(1) 0.0042(5) 1. 0
O4 O2- 2 a 0.079(2) 0 0.586(1) 0.0042(5) 1. 0
O5 O2- 2 a 0.086(2) 0 0.786(1) 0.0042(5) 1. 0
O6 O2- 2 a 0.083(2) 0 0.980(1) 0.0042(5) 1. 0
O7 O2- 2 a 0.212(2) 0.5 0.102(1) 0.0042(5) 1. 0
O8 O2- 2 a 0.209(2) 0 0.723(1) 0.0042(5) 1. 0
O9 O2- 2 a 0.225(2) 0 0.923(2) 0.0042(5) 1. 0
O10 O2- 2 a 0.369(2) 0 0.054(1) 0.0042(5) 1. 0
O11 O2- 2 a 0.368(2) 0 0.247(1) 0.0042(5) 1. 0
O12 O2- 2 a 0.368(2) 0 0.461(1) 0.0042(5) 1. 0
O13 O2- 2 a 0.364(2) 0 0.663(2) 0.0042(5) 1. 0
O14 O2- 2 a 0.369(1) 0 0.866(1) 0.0042(5) 1. 0
O15 O2- 2 a 0.511(2) 0 0.193(2) 0.0042(5) 1. 0
O16 O2- 2 a 0.933(2) 0 0.837(1) 0.0042(5) 1. 0
O17 O2- 2 a 0.933(2) 0 0.629(2) 0.0042(5) 1. 0
O18 O2- 2 a 0.932(2) 0 0.426(1) 0.0042(5) 1. 0
O19 O2- 2 a 0.931(2) 0 0.225(2) 0.0042(5) 1. 0
O20 O2- 2 a 0.941(2) 0 0.032(2) 0.0042(5) 1. 0
O21 O2- 2 a 0.776(2) 0 0.904(1) 0.0042(5) 1. 0
O22 O2- 2 a 0.793(2) 0.5 0.268(1) 0.0042(5) 1. 0
O23 O2- 2 a 0.752(1) 0 0.076(1) 0.0042(5) 1. 0
O24 O2- 2 a 0.648(1) 0 0.952(2) 0.0042(5) 1. 0
O25 O2- 2 a 0.648(2) 0 0.747(2) 0.0042(5) 1. 0
O26 O2- 2 a 0.652(2) 0 0.546(2) 0.0042(5) 1. 0
O27 O2- 2 a 0.644(2) 0 0.339(2) 0.0042(5) 1. 0
O28 O2- 2 a 0.648(2) 0 0.139(2) 0.0042(5) 1. 0
O29 O2- 2 a 0.509(2) 0 0.806(2) 0.0042(5) 1. 0
#End of TTdata_155017-ICSD