
#(C) 2018 by FIZ Karlsruhe - Leibniz Institute for Information Infrastructure.  All rights reserved.
data_22014-ICSD
_database_code_ICSD 22014
_audit_creation_date 1980-01-01
_audit_update_record 2006-04-01
_chemical_name_systematic 'Lithium alumosilicate - beta, HT'
_chemical_formula_structural 'Li (Al Si O4)'
_chemical_formula_sum 'Al1 Li1 O4 Si1'
_chemical_name_mineral 'Pseudo-eucryptite high'
_exptl_crystal_density_diffrn 2.35
_cell_measurement_temperature 757.
_publ_section_title
'The crystal structure of beta eucryptite as a function of temperature'
loop_
_citation_id
_citation_journal_full
_citation_year
_citation_journal_volume
_citation_page_first
_citation_page_last
_citation_journal_id_ASTM
primary 'American Mineralogist' 1973 58 681 690 AMMIAY
loop_
_publ_author_name
'Pillars, W.W.'
'Peacor, D.R.'
_cell_length_a 5.269(2)
_cell_length_b 5.269(2)
_cell_length_c 11.105(5)
_cell_angle_alpha 90.
_cell_angle_beta 90.
_cell_angle_gamma 120.
_cell_volume 267.
_cell_formula_units_Z 3
_symmetry_space_group_name_H-M 'P 64 2 2'
_symmetry_Int_Tables_number 181
_refine_ls_R_factor_all 0.092
loop_
_symmetry_equiv_pos_site_id
_symmetry_equiv_pos_as_xyz
1 'x, x-y, -z+2/3'
2 '-x+y, y, -z'
3 '-y, -x, -z+1/3'
4 '-x, -x+y, -z+2/3'
5 'x-y, -y, -z'
6 'y, x, -z+1/3'
7 'x-y, x, z+2/3'
8 'y, -x+y, z+1/3'
9 '-x, -y, z'
10 '-x+y, -x, z+2/3'
11 '-y, x-y, z+1/3'
12 'x, y, z'
loop_
_atom_type_symbol
_atom_type_oxidation_number
Li1+ 1
Al3+ 3
Si4+ 4
O2- -2
loop_
_atom_site_label
_atom_site_type_symbol
_atom_site_symmetry_multiplicity
_atom_site_Wyckoff_symbol
_atom_site_fract_x
_atom_site_fract_y
_atom_site_fract_z
_atom_site_B_iso_or_equiv
_atom_site_occupancy
_atom_site_attached_hydrogens
Li1 Li1+ 3 a 0 0 0 7.1(12) 1. 0
Al1 Al3+ 3 d 0.5 0 0.5 0.94(8) 1. 0
Si1 Si4+ 3 c 0.5 0 0 0.99(7) 1. 0
O1 O2- 12 k 0.2105(15) 0.4046(13) 0.7456(4) 2.4(1) 1. 0
#End of TTdata_22014-ICSD