
#(C) 2017 by FIZ Karlsruhe - Leibniz Institute for Information Infrastructure, and the U.S. Secretary of
#Commerce on behalf of the United States.  All rights reserved.
data_649897-ICSD
_database_code_ICSD 649897
_audit_creation_date 2012-08-01
_audit_update_record 2015-08-01
_chemical_name_systematic 'Plutonium - beta'
_chemical_formula_structural Pu
_chemical_formula_sum Pu1
_chemical_name_structure_type Pu(mS34)
_chemical_name_mineral Plutonium-beta
_exptl_crystal_density_diffrn 18.22
_cell_measurement_temperature 393.
_publ_section_title
'The crystallography of the alpha to beta transformation in plutonium'
_publ_section_comment 'Cell and Type only determined'
loop_
_citation_id
_citation_journal_full
_citation_year
_citation_journal_volume
_citation_page_first
_citation_page_last
_citation_journal_id_ASTM
primary 'Transactions of the Metallurgical Society of Aime' 1969 245 967 970
TMSAAB
loop_
_publ_author_name
'Nelson, R.D.'
'Bowman, F.E.'
_cell_length_a 11.86
_cell_length_b 10.453
_cell_length_c 7.833
_cell_angle_alpha 90.
_cell_angle_beta 128.87
_cell_angle_gamma 90.
_cell_volume 756.05
_cell_formula_units_Z 34
_symmetry_space_group_name_H-M 'C 1 2/m 1'
_symmetry_Int_Tables_number 12
loop_
_symmetry_equiv_pos_site_id
_symmetry_equiv_pos_as_xyz
1 '-x, y, -z'
2 '-x, -y, -z'
3 'x, -y, z'
4 'x, y, z'
5 '-x+1/2, y+1/2, -z'
6 '-x+1/2, -y+1/2, -z'
7 'x+1/2, -y+1/2, z'
8 'x+1/2, y+1/2, z'
loop_
_atom_type_symbol
_atom_type_oxidation_number
Pu0+ 0
loop_
_atom_site_label
_atom_site_type_symbol
_atom_site_symmetry_multiplicity
_atom_site_Wyckoff_symbol
_atom_site_fract_x
_atom_site_fract_y
_atom_site_fract_z
_atom_site_B_iso_or_equiv
_atom_site_occupancy
_atom_site_attached_hydrogens
Pu1 Pu0+ 2 a 0 0 0 . 1. 0
Pu2 Pu0+ 4 h 0 0.28 0.5 . 1. 0
Pu3 Pu0+ 4 i 0.146 0 0.759 . 1. 0
Pu4 Pu0+ 4 i 0.337 0 0.255 . 1. 0
Pu5 Pu0+ 4 i 0.566 0 0.238 . 1. 0
Pu6 Pu0+ 8 j 0.145 0.268 0.037 . 1. 0
Pu7 Pu0+ 8 j 0.167 0.15 0.414 . 1. 0
#End of TTdata_649897-ICSD