
#(C) 2018 by FIZ Karlsruhe - Leibniz Institute for Information Infrastructure.  All rights reserved.
data_200863-ICSD
_database_code_ICSD 200863
_audit_creation_date 1980-12-31
_audit_update_record 1999-11-30
_chemical_name_systematic 'Barium nitrate(III) hydrate'
_chemical_formula_structural 'Ba (N O2)2 (H2 O)'
_chemical_formula_sum 'H2 Ba1 N2 O5'
_chemical_name_structure_type Ba(NO2)2H2O
_exptl_crystal_density_diffrn 3.18
_cell_measurement_temperature 298.
_publ_section_title
'Pyroelectric Ba (N O2)2 (H2 O). Room temperature crystal structure'
loop_
_citation_id
_citation_journal_full
_citation_year
_citation_journal_volume
_citation_page_first
_citation_page_last
_citation_journal_id_ASTM
primary 'Journal of Chemical Physics' 1980 72 5857 5862 JCPSA6
loop_
_publ_author_name
'Abrahams, S.C.'
'Bernstein, J.L.'
'Liminga, R.'
_cell_length_a 7.07490(3)
_cell_length_b 7.07490(3)
_cell_length_c 17.8909(1)
_cell_angle_alpha 90.
_cell_angle_beta 90.
_cell_angle_gamma 120.
_cell_volume 775.54
_cell_formula_units_Z 6
_symmetry_space_group_name_H-M 'P 65'
_symmetry_Int_Tables_number 170
_refine_ls_R_factor_all 0.026
loop_
_symmetry_equiv_pos_site_id
_symmetry_equiv_pos_as_xyz
1 'x-y, x, z+5/6'
2 'y, -x+y, z+1/6'
3 '-x, -y, z+1/2'
4 '-x+y, -x, z+1/3'
5 '-y, x-y, z+2/3'
6 'x, y, z'
loop_
_atom_type_symbol
_atom_type_oxidation_number
Ba2+ 2
N3+ 3
O2- -2
H1+ 1
loop_
_atom_site_label
_atom_site_type_symbol
_atom_site_symmetry_multiplicity
_atom_site_Wyckoff_symbol
_atom_site_fract_x
_atom_site_fract_y
_atom_site_fract_z
_atom_site_B_iso_or_equiv
_atom_site_occupancy
_atom_site_attached_hydrogens
Ba1 Ba2+ 6 a 0.42676(3) 0.84980(2) 0 . 1. 0
N1 N3+ 6 a 0.2462(5) 0.0284(6) 0.1458(2) . 1. 0
N2 N3+ 6 a 0.5642(6) 0.1175(7) 0.3255(3) . 1. 0
O1 O2- 6 a 0.4373(4) 0.1010(5) 0.1229(2) . 1. 0
O2 O2- 6 a 0.1079(4) 0.8628(5) 0.1116(2) . 1. 0
O3 O2- 6 a 0.5825(5) 0.2886(5) 0.2980(2) . 1. 0
O4 O2- 6 a 0.6155(6) 0.0129(6) 0.2832(3) . 1. 0
O5 O2- 6 a 0.2311(4) 0.1560(5) 0.4164(2) . 1. 0
H1 H1+ 6 a 0.171(15) 0.027(14) 0.384(5) 3.3 1. 0
H2 H1+ 6 a 0.091(7) 0.165(8) 0.441(3) 0.4 1. 0
loop_
_atom_site_aniso_label
_atom_site_aniso_type_symbol
_atom_site_aniso_beta_11
_atom_site_aniso_beta_22
_atom_site_aniso_beta_33
_atom_site_aniso_beta_12
_atom_site_aniso_beta_13
_atom_site_aniso_beta_23
Ba1 Ba2+ 0.00814(3) 0.00688(3) 0.00113(1) 0.00326(2) 0.00029(1) -.00013(1)
N1 N3+ 0.0105(5) 0.0125(6) 0.0018(1) 0.0058(5) 0.0005(2) -.0004(2)
N2 N3+ 0.0144(7) 0.0158(7) 0.0021(2) 0.0078(6) 0.0014(3) 0.0019(3)
O1 O2- 0.0080(4) 0.0163(7) 0.0020(1) 0.0023(4) 0.0003(2) -.0019(2)
O2 O2- 0.0089(5) 0.0110(5) 0.0024(1) 0.0027(4) -.0003(2) 0.0002(2)
O3 O2- 0.0234(10) 0.0129(6) 0.0024(1) 0.0115(7) 0.0033(3) 0.0013(2)
O4 O2- 0.0169(8) 0.0129(7) 0.0041(2) 0.0092(6) 0.0018(3) 0.0011(3)
O5 O2- 0.0094(4) 0.0120(5) 0.0018(1) 0.0049(4) 0.0001(2) -.0006(2)
#End of TTdata_200863-ICSD