
#(C) 2017 by FIZ Karlsruhe - Leibniz Institute for Information Infrastructure.  All rights reserved.
data_58629-ICSD
_database_code_ICSD 58629
_audit_creation_date 2004-10-01
_chemical_name_systematic 'Gold zinc (5/3)'
_chemical_formula_structural 'Au5 Zn3'
_chemical_formula_sum 'Au5 Zn3'
_exptl_crystal_density_diffrn 15.36
_publ_section_title

;
The crystal structure and the phase transition of a metastable phase in the
Au.662 Zn.378 alloy
;
loop_
_citation_id
_citation_journal_full
_citation_year
_citation_journal_volume
_citation_page_first
_citation_page_last
_citation_journal_id_ASTM
primary 'Journal of the Physical Society of Japan' 1962 17 1620 1633 JUPSAU
loop_
_publ_author_name
'Iwasaki, H.'
_cell_length_a 6.345
_cell_length_b 8.971
_cell_length_c 4.486
_cell_angle_alpha 90.
_cell_angle_beta 90.
_cell_angle_gamma 90.
_cell_volume 255.35
_cell_formula_units_Z 2
_symmetry_space_group_name_H-M 'P m c 21'
_symmetry_Int_Tables_number 26
_refine_ls_R_factor_all 0.175
loop_
_symmetry_equiv_pos_site_id
_symmetry_equiv_pos_as_xyz
1 'x, -y, z+1/2'
2 '-x, -y, z+1/2'
3 '-x, y, z'
4 'x, y, z'
loop_
_atom_type_symbol
_atom_type_oxidation_number
Au0+ 0
Zn0+ 0
Au0+ 0
Zn0+ 0
Au0+ 0
Zn0+ 0
Au0+ 0
Zn0+ 0
Au0+ 0
Zn0+ 0
loop_
_atom_site_label
_atom_site_type_symbol
_atom_site_symmetry_multiplicity
_atom_site_Wyckoff_symbol
_atom_site_fract_x
_atom_site_fract_y
_atom_site_fract_z
_atom_site_B_iso_or_equiv
_atom_site_occupancy
_atom_site_attached_hydrogens
Au1 Au0+ 2 a 0 0.358 0.729 0.9 0.1 0
Zn1 Zn0+ 2 a 0 0.358 0.729 0.9 0.9 0
Au2 Au0+ 2 a 0 0.122 0.284 0.95 0.4 0
Zn2 Zn0+ 2 a 0 0.122 0.284 0.95 0.6 0
Au3 Au0+ 2 b 0.5 0.142 0.289 1.05 0.2 0
Zn3 Zn0+ 2 b 0.5 0.142 0.289 1.05 0.8 0
Au4 Au0+ 2 b 0.5 0.376 0.716 0.5 0.6 0
Zn4 Zn0+ 2 b 0.5 0.376 0.716 0.5 0.4 0
Au5 Au0+ 4 c 0.254 0.116 0.802 0.45 1. 0
Au6 Au0+ 4 c 0.227 0.376 0.202 0.9 0.85 0
Zn6 Zn0+ 4 c 0.227 0.376 0.202 0.9 0.15 0
#End of TTdata_58629-ICSD