
#(C) 2017 by FIZ Karlsruhe - Leibniz Institute for Information Infrastructure.  All rights reserved.
data_162255-ICSD
_database_code_ICSD 162255
_audit_creation_date 2009-08-01
_chemical_name_systematic 'Calcium - V, HP'
_chemical_formula_structural Ca
_chemical_formula_sum Ca1
_chemical_name_structure_type Ga
_exptl_crystal_density_diffrn 6.34
_cell_measurement_pressure 154000000.
_publ_section_title 'Crystal structures of calcium IV and V under high pressure'
loop_
_citation_id
_citation_journal_full
_citation_year
_citation_journal_volume
_citation_page_first
_citation_page_last
_citation_journal_id_ASTM
primary 'Physical Review Letters' 2008 101 095503-1 095503-4 PRLTAO
loop_
_publ_author_name
'Fujihisa, H.'
'Nakamoto, Y.'
'Shimizu, K.'
'Yabuuchi, T.'
'Gotoh, Y.'
_cell_length_a 4.319(1)
_cell_length_b 4.505(1)
_cell_length_c 4.315(1)
_cell_angle_alpha 90.
_cell_angle_beta 90.
_cell_angle_gamma 90.
_cell_volume 83.96
_cell_formula_units_Z 8
_symmetry_space_group_name_H-M 'C m c a'
_symmetry_Int_Tables_number 64
_refine_ls_R_factor_all 0.0073
loop_
_symmetry_equiv_pos_site_id
_symmetry_equiv_pos_as_xyz
1 '-x, -y+1/2, z+1/2'
2 '-x, y+1/2, -z+1/2'
3 '-x, y, z'
4 '-x, -y, -z'
5 'x, y+1/2, -z+1/2'
6 'x, -y+1/2, z+1/2'
7 'x, -y, -z'
8 'x, y, z'
9 '-x+1/2, -y, z+1/2'
10 '-x+1/2, y, -z+1/2'
11 '-x+1/2, y+1/2, z'
12 '-x+1/2, -y+1/2, -z'
13 'x+1/2, y, -z+1/2'
14 'x+1/2, -y, z+1/2'
15 'x+1/2, -y+1/2, -z'
16 'x+1/2, y+1/2, z'
loop_
_atom_type_symbol
_atom_type_oxidation_number
Ca0+ 0
loop_
_atom_site_label
_atom_site_type_symbol
_atom_site_symmetry_multiplicity
_atom_site_Wyckoff_symbol
_atom_site_fract_x
_atom_site_fract_y
_atom_site_fract_z
_atom_site_B_iso_or_equiv
_atom_site_occupancy
_atom_site_attached_hydrogens
Ca1 Ca0+ 8 f 0 0.158(1) 0.197(1) . 1. 0
#End of TTdata_162255-ICSD