
#(C) 2017 by FIZ Karlsruhe - Leibniz Institute for Information Infrastructure.  All rights reserved.
data_29123-ICSD
_database_code_ICSD 29123
_audit_creation_date 1980-01-01
_audit_update_record 2015-02-01
_chemical_name_systematic Carbon
_chemical_formula_structural C
_chemical_formula_sum C1
_chemical_name_structure_type Graphite(3R)
_exptl_crystal_density_diffrn 2.24
_publ_section_title 'A new structure of carbon'
loop_
_citation_id
_citation_journal_full
_citation_year
_citation_journal_volume
_citation_page_first
_citation_page_last
_citation_journal_id_ASTM
primary 'Nature (London)' 1942 149 328 328 NATUAS
loop_
_publ_author_name
'Lipson, H.'
'Stokes, A.R.'
_cell_length_a 3.635
_cell_length_b 3.635
_cell_length_c 3.635
_cell_angle_alpha 39.82
_cell_angle_beta 39.82
_cell_angle_gamma 39.82
_cell_volume 17.74
_cell_formula_units_Z 2
_symmetry_space_group_name_H-M 'R -3 m R'
_symmetry_Int_Tables_number 166
loop_
_symmetry_equiv_pos_site_id
_symmetry_equiv_pos_as_xyz
1 '-z, -y, -x'
2 '-z, -x, -y'
3 '-x, -z, -y'
4 '-y, -z, -x'
5 '-y, -x, -z'
6 '-x, -y, -z'
7 'z, y, x'
8 'z, x, y'
9 'x, z, y'
10 'y, z, x'
11 'y, x, z'
12 'x, y, z'
loop_
_atom_type_symbol
_atom_type_oxidation_number
C0+ 0
loop_
_atom_site_label
_atom_site_type_symbol
_atom_site_symmetry_multiplicity
_atom_site_Wyckoff_symbol
_atom_site_fract_x
_atom_site_fract_y
_atom_site_fract_z
_atom_site_B_iso_or_equiv
_atom_site_occupancy
_atom_site_attached_hydrogens
C1 C0+ 2 c 0.1667 0.1667 0.1667 . 1. 0
#End of TTdata_29123-ICSD