
#(C) 2017 by FIZ Karlsruhe - Leibniz Institute for Information Infrastructure.  All rights reserved.
data_107310-ICSD
_database_code_ICSD 107310
_audit_creation_date 2005-10-01
_chemical_name_systematic 'Copper hafnium tin (1/5/3)'
_chemical_formula_structural 'Cu Hf5 Sn3'
_chemical_formula_sum 'Cu1 Hf5 Sn3'
_chemical_name_structure_type Ga4Ti5
_exptl_crystal_density_diffrn 11.89
_publ_section_title
'Phasen mit oktaedrischen Bauelementen des Uebergangsmetalls'
loop_
_citation_id
_citation_journal_full
_citation_year
_citation_journal_volume
_citation_page_first
_citation_page_last
_citation_journal_id_ASTM
primary 'Monatshefte fuer Chemie' 1965 96 232 241 MOCHAP
loop_
_publ_author_name
'Rieger, W.'
'Nowotny, H.N.'
'Benesovsky, F.'
_cell_length_a 8.527
_cell_length_b 8.527
_cell_length_c 5.822
_cell_angle_alpha 90.
_cell_angle_beta 90.
_cell_angle_gamma 120.
_cell_volume 366.6
_cell_formula_units_Z 2
_symmetry_space_group_name_H-M 'P 63/m c m'
_symmetry_Int_Tables_number 193
loop_
_symmetry_equiv_pos_site_id
_symmetry_equiv_pos_as_xyz
1 '-x, -x+y, -z+1/2'
2 'x-y, -y, -z+1/2'
3 'y, x, -z+1/2'
4 '-x+y, -x, -z+1/2'
5 '-y, x-y, -z+1/2'
6 'x, y, -z+1/2'
7 'x, x-y, z+1/2'
8 '-x+y, y, z+1/2'
9 '-y, -x, z+1/2'
10 'x-y, x, z+1/2'
11 'y, -x+y, z+1/2'
12 '-x, -y, z+1/2'
13 'x, x-y, -z'
14 '-x+y, y, -z'
15 '-y, -x, -z'
16 'x-y, x, -z'
17 'y, -x+y, -z'
18 '-x, -y, -z'
19 '-x, -x+y, z'
20 'x-y, -y, z'
21 'y, x, z'
22 '-x+y, -x, z'
23 '-y, x-y, z'
24 'x, y, z'
loop_
_atom_type_symbol
_atom_type_oxidation_number
Cu0+ 0
Sn0+ 0
Hf0+ 0
loop_
_atom_site_label
_atom_site_type_symbol
_atom_site_symmetry_multiplicity
_atom_site_Wyckoff_symbol
_atom_site_fract_x
_atom_site_fract_y
_atom_site_fract_z
_atom_site_B_iso_or_equiv
_atom_site_occupancy
_atom_site_attached_hydrogens
Cu1 Cu0+ 2 b 0 0 0 . 1. 0
Sn1 Sn0+ 6 g 0.6 0 0.25 . 1. 0
Hf1 Hf0+ 4 d 0.3333 0.6667 0 . 1. 0
Hf2 Hf0+ 6 g 0.27 0 0.25 . 1. 0
#End of TTdata_107310-ICSD