
#(C) 2017 by FIZ Karlsruhe - Leibniz Institute for Information Infrastructure.  All rights reserved.
data_10084-ICSD
_database_code_ICSD 10084
_audit_creation_date 1980-01-01
_audit_update_record 2007-04-01
_chemical_name_systematic Diiodine
_chemical_formula_structural I2
_chemical_formula_sum I2
_chemical_name_structure_type I2
_exptl_crystal_density_diffrn 8.15
_cell_measurement_pressure 20600000.
_publ_section_title
'Structure analysis of high pressure metallic state of iodine'
loop_
_citation_id
_citation_journal_full
_citation_year
_citation_journal_volume
_citation_page_first
_citation_page_last
_citation_journal_id_ASTM
primary 'Physical Review, Serie 3. B - Condensed Matter (18,1978-)' 1978 18 715
719 PRBMDO
loop_
_publ_author_name
'Shimomura, O.'
'Takemura, K.'
'Fujii, Y.'
'Minomura, S.'
_cell_length_a 5.779(8)
_cell_length_b 3.943(14)
_cell_length_c 9.076(10)
_cell_angle_alpha 90.
_cell_angle_beta 90.
_cell_angle_gamma 90.
_cell_volume 206.81
_cell_formula_units_Z 4
_symmetry_space_group_name_H-M 'C m c a'
_symmetry_Int_Tables_number 64
loop_
_symmetry_equiv_pos_site_id
_symmetry_equiv_pos_as_xyz
1 '-x, -y+1/2, z+1/2'
2 '-x, y+1/2, -z+1/2'
3 '-x, y, z'
4 '-x, -y, -z'
5 'x, y+1/2, -z+1/2'
6 'x, -y+1/2, z+1/2'
7 'x, -y, -z'
8 'x, y, z'
9 '-x+1/2, -y, z+1/2'
10 '-x+1/2, y, -z+1/2'
11 '-x+1/2, y+1/2, z'
12 '-x+1/2, -y+1/2, -z'
13 'x+1/2, y, -z+1/2'
14 'x+1/2, -y, z+1/2'
15 'x+1/2, -y+1/2, -z'
16 'x+1/2, y+1/2, z'
loop_
_atom_type_symbol
_atom_type_oxidation_number
I0+ 0
loop_
_atom_site_label
_atom_site_type_symbol
_atom_site_symmetry_multiplicity
_atom_site_Wyckoff_symbol
_atom_site_fract_x
_atom_site_fract_y
_atom_site_fract_z
_atom_site_B_iso_or_equiv
_atom_site_occupancy
_atom_site_attached_hydrogens
I1 I0+ 8 f 0 0.194(4) 0.128(3) 0.3 1. 0
#End of TTdata_10084-ICSD