
#(C) 2017 by FIZ Karlsruhe - Leibniz Institute for Information Infrastructure.  All rights reserved.
data_31691-ICSD
_database_code_ICSD 31691
_audit_creation_date 1980-01-01
_audit_update_record 2006-04-01
_chemical_name_systematic 'Iodine(VII) fluoride'
_chemical_formula_structural 'I F7'
_chemical_formula_sum 'F7 I1'
_exptl_crystal_density_diffrn 3.63
_cell_measurement_temperature 128.
_publ_section_title

;
Structure of the interhalogen compounds. II.Iodine heptafluoride at -110 C and
at -145 C
;
loop_
_citation_id
_citation_journal_full
_citation_year
_citation_journal_volume
_citation_page_first
_citation_page_last
_citation_journal_id_ASTM
primary 'Journal of Chemical Physics' 1957 27 981 982 JCPSA6
loop_
_publ_author_name
'Burbank, R.D.'
'Bensey, F.N.'
_cell_length_a 8.74
_cell_length_b 8.87
_cell_length_c 6.14
_cell_angle_alpha 90.
_cell_angle_beta 90.
_cell_angle_gamma 90.
_cell_volume 476.
_cell_formula_units_Z 4
_symmetry_space_group_name_H-M 'A b a 2'
_symmetry_Int_Tables_number 41
loop_
_symmetry_equiv_pos_site_id
_symmetry_equiv_pos_as_xyz
1 'x+1/2, -y+1/2, z'
2 '-x+1/2, y+1/2, z'
3 '-x, -y, z'
4 'x, y, z'
5 'x+1/2, -y, z+1/2'
6 '-x+1/2, y, z+1/2'
7 '-x, -y+1/2, z+1/2'
8 'x, y+1/2, z+1/2'
loop_
_atom_type_symbol
_atom_type_oxidation_number
I7+ 7
F1- -1
loop_
_atom_site_label
_atom_site_type_symbol
_atom_site_symmetry_multiplicity
_atom_site_Wyckoff_symbol
_atom_site_fract_x
_atom_site_fract_y
_atom_site_fract_z
_atom_site_B_iso_or_equiv
_atom_site_occupancy
_atom_site_attached_hydrogens
I1 I7+ 4 a 0 0 0 . 1. 0
F1 F1- 4 a 0 0 0.2777 . 1. 0
F2 F1- 8 b 0.0862 0.0974 -.2361 . 1. 0
F3 F1- 8 b 0.1235 0.1566 0.0585 . 1. 0
F4 F1- 8 b 0.1695 -.1189 0.031 . 1. 0
#End of TTdata_31691-ICSD