
#(C) 2017 by FIZ Karlsruhe - Leibniz Institute for Information Infrastructure.  All rights reserved.
data_67669-ICSD
_database_code_ICSD 67669
_audit_creation_date 1994-01-19
_audit_update_record 2012-02-01
_chemical_name_systematic 'Silicon oxide'
_chemical_formula_structural 'Si O2'
_chemical_formula_sum 'O2 Si1'
_chemical_name_structure_type Moganite
_chemical_name_mineral Moganite
_exptl_crystal_density_diffrn 2.62
_publ_section_title
'Crystal structure of moganite: a new structure type for silica'
loop_
_citation_id
_citation_journal_full
_citation_year
_citation_journal_volume
_citation_page_first
_citation_page_last
_citation_journal_id_ASTM
primary 'European Journal of Mineralogy' 1992 4 693 706 EJMIER
loop_
_publ_author_name
'Miehe, G.'
'Graetsch, H.'
_cell_length_a 8.758(2)
_cell_length_b 4.876(1)
_cell_length_c 10.715(2)
_cell_angle_alpha 90.
_cell_angle_beta 90.08(3)
_cell_angle_gamma 90.
_cell_volume 457.57
_cell_formula_units_Z 12
_symmetry_space_group_name_H-M 'I 1 2/a 1'
_symmetry_Int_Tables_number 15
_refine_ls_R_factor_all 0.035
loop_
_symmetry_equiv_pos_site_id
_symmetry_equiv_pos_as_xyz
1 'x+1/2, -y, z'
2 '-x, -y, -z'
3 '-x+1/2, y, -z'
4 'x, y, z'
5 'x, -y+1/2, z+1/2'
6 '-x+1/2, -y+1/2, -z+1/2'
7 '-x, y+1/2, -z+1/2'
8 'x+1/2, y+1/2, z+1/2'
loop_
_atom_type_symbol
_atom_type_oxidation_number
Si4+ 4
O2- -2
loop_
_atom_site_label
_atom_site_type_symbol
_atom_site_symmetry_multiplicity
_atom_site_Wyckoff_symbol
_atom_site_fract_x
_atom_site_fract_y
_atom_site_fract_z
_atom_site_B_iso_or_equiv
_atom_site_occupancy
_atom_site_attached_hydrogens
Si1 Si4+ 4 e 0.25 -.0092(17) 0 3.2(1) 1. 0
Si2 Si4+ 8 f 0.0115(4) 0.2533(6) 0.1678(2) 0.5(1) 1. 0
O1 O2- 8 f -.0314(12) 0.0680(13) 0.2860(5) 1.9(1) 1. 0
O2 O2- 8 f 0.1711 0.177 0.105 5.0(2) 1. 0
O3 O2- 8 f -.1343(5) 0.2148(12) 0.0739(8) 0.4(1) 1. 0
#End of TTdata_67669-ICSD