
#(C) 2017 by FIZ Karlsruhe - Leibniz Institute for Information Infrastructure.  All rights reserved.
data_53771-ICSD
_database_code_ICSD 53771
_audit_creation_date 2003-04-01
_audit_update_record 2013-02-01
_chemical_name_systematic 'Mercury - alpha'
_chemical_formula_structural Hg
_chemical_formula_sum Hg1
_chemical_name_structure_type Hg(LT)
_exptl_crystal_density_diffrn 13.98
_cell_measurement_temperature 216.
_publ_section_title 'The structure of mercury at low temperatures'
loop_
_citation_id
_citation_journal_full
_citation_year
_citation_journal_volume
_citation_page_first
_citation_page_last
_citation_journal_id_ASTM
primary 'Physical Review (1,1893-132,1963/141,1966-188,1969)' 1922 19 444 446
PHRVAO
loop_
_publ_author_name
'McKeehan, L.W.'
'Gioffi, P.P.'
_cell_length_a 3.025
_cell_length_b 3.025
_cell_length_c 3.025
_cell_angle_alpha 70.53
_cell_angle_beta 70.53
_cell_angle_gamma 70.53
_cell_volume 23.82
_cell_formula_units_Z 1
_symmetry_space_group_name_H-M 'R -3 m R'
_symmetry_Int_Tables_number 166
loop_
_symmetry_equiv_pos_site_id
_symmetry_equiv_pos_as_xyz
1 '-z, -y, -x'
2 '-z, -x, -y'
3 '-x, -z, -y'
4 '-y, -z, -x'
5 '-y, -x, -z'
6 '-x, -y, -z'
7 'z, y, x'
8 'z, x, y'
9 'x, z, y'
10 'y, z, x'
11 'y, x, z'
12 'x, y, z'
loop_
_atom_type_symbol
_atom_type_oxidation_number
Hg0+ 0
loop_
_atom_site_label
_atom_site_type_symbol
_atom_site_symmetry_multiplicity
_atom_site_Wyckoff_symbol
_atom_site_fract_x
_atom_site_fract_y
_atom_site_fract_z
_atom_site_B_iso_or_equiv
_atom_site_occupancy
_atom_site_attached_hydrogens
Hg1 Hg0+ 1 a 0 0 0 . 1. 0
#End of TTdata_53771-ICSD