
#(C) 2018 by FIZ Karlsruhe - Leibniz Institute for Information Infrastructure.  All rights reserved.
data_168328-ICSD
_database_code_ICSD 168328
_audit_creation_date 2011-02-01
_chemical_name_systematic 'Titanium hydride (1/1.75)'
_chemical_formula_structural 'Ti H1.75'
_chemical_formula_sum 'H1.75 Ti1'
_exptl_crystal_density_diffrn 3.97
_publ_section_title
'Structural stability and hydrogen diffusion in Ti Hx alloys'
loop_
_citation_id
_citation_journal_full
_citation_year
_citation_journal_volume
_citation_page_first
_citation_page_last
_citation_journal_id_ASTM
primary 'Solid State Communications' 2010 150 1715 1718 SSCOA4
loop_
_publ_author_name
'Wang Xin Quan'
'Wang Jian Tao'
_cell_length_a 4.362
_cell_length_b 4.362
_cell_length_c 4.362
_cell_angle_alpha 90.
_cell_angle_beta 90.
_cell_angle_gamma 90.
_cell_volume 83.
_cell_formula_units_Z 4
_symmetry_space_group_name_H-M 'P 1'
_symmetry_Int_Tables_number 1
loop_
_symmetry_equiv_pos_site_id
_symmetry_equiv_pos_as_xyz
1 'x, y, z'
loop_
_atom_type_symbol
_atom_type_oxidation_number
Ti0+ 0
H0+ 0
loop_
_atom_site_label
_atom_site_type_symbol
_atom_site_symmetry_multiplicity
_atom_site_Wyckoff_symbol
_atom_site_fract_x
_atom_site_fract_y
_atom_site_fract_z
_atom_site_B_iso_or_equiv
_atom_site_occupancy
_atom_site_attached_hydrogens
Ti1 Ti0+ 1 a 0 0 0 . 1. 0
Ti2 Ti0+ 1 a 0.5 0.5 0 . 1. 0
Ti3 Ti0+ 1 a 0.5 0 0.5 . 1. 0
Ti4 Ti0+ 1 a 0 0.5 0.5 . 1. 0
H1 H0+ 1 a 0.25 0.25 0.25 . 1. 0
H2 H0+ 1 a 0.75 0.75 0.75 . 1. 0
H3 H0+ 1 a 0.25 0.25 0.75 . 1. 0
H4 H0+ 1 a 0.75 0.75 0.25 . 1. 0
H5 H0+ 1 a 0.75 0.25 0.25 . 1. 0
H6 H0+ 1 a 0.75 0.25 0.75 . 1. 0
H7 H0+ 1 a 0.25 0.75 0.25 . 1. 0
#End of TTdata_168328-ICSD