
#(C) 2017 by FIZ Karlsruhe - Leibniz Institute for Information Infrastructure, and the U.S. Secretary of
#Commerce on behalf of the United States.  All rights reserved.
data_646026-ICSD
_database_code_ICSD 646026
_audit_creation_date 2010-02-01
_audit_update_record 2017-08-01
_chemical_name_systematic 'Neodymium(IV) ditelluride'
_chemical_formula_structural 'Nd Te2'
_chemical_formula_sum 'Nd1 Te2'
_chemical_name_structure_type PrOI
_exptl_crystal_density_diffrn 7.59
_publ_section_title
'Phase diagram of the Nd-Te system and the properties of the phases'
_publ_section_comment 'Cell and Type only determined'
loop_
_citation_id
_citation_journal_full
_citation_year
_citation_journal_volume
_citation_page_first
_citation_page_last
_citation_journal_id_ASTM
primary 'Inorganic Materials' 1966 2 1506 1514 INOMAF
loop_
_publ_author_name
'Zinchenko, K.A.'
'Luzhnaya, N.P.'
'Yarembash, E.I.'
'Eliseev, A.A.'
_cell_length_a 4.405
_cell_length_b 4.405
_cell_length_c 9.008
_cell_angle_alpha 90.
_cell_angle_beta 90.
_cell_angle_gamma 90.
_cell_volume 174.79
_cell_formula_units_Z 2
_symmetry_space_group_name_H-M 'P 4/n m m Z'
_symmetry_Int_Tables_number 129
loop_
_symmetry_equiv_pos_site_id
_symmetry_equiv_pos_as_xyz
1 'y+1/2, x+1/2, -z'
2 '-y, x+1/2, -z'
3 'y+1/2, -x, -z'
4 '-y, -x, -z'
5 'x+1/2, y+1/2, -z'
6 '-x, y+1/2, -z'
7 'x+1/2, -y, -z'
8 '-x, -y, -z'
9 '-y+1/2, -x+1/2, z'
10 'y, -x+1/2, z'
11 '-y+1/2, x, z'
12 'y, x, z'
13 '-x+1/2, -y+1/2, z'
14 'x, -y+1/2, z'
15 '-x+1/2, y, z'
16 'x, y, z'
loop_
_atom_type_symbol
_atom_type_oxidation_number
Se2- -2
Nd4+ 4
Se2- -2
loop_
_atom_site_label
_atom_site_type_symbol
_atom_site_symmetry_multiplicity
_atom_site_Wyckoff_symbol
_atom_site_fract_x
_atom_site_fract_y
_atom_site_fract_z
_atom_site_B_iso_or_equiv
_atom_site_occupancy
_atom_site_attached_hydrogens
Se1 Se2- 2 a 0.75 0.25 0 . 1. 0
Nd1 Nd4+ 2 c 0.25 0.25 0.263 . 1. 0
Se2 Se2- 2 c 0.25 0.25 0.637 . 1. 0
#End of TTdata_646026-ICSD