
#(C) 2017 by FIZ Karlsruhe - Leibniz Institute for Information Infrastructure.  All rights reserved.
data_196741-ICSD
_database_code_ICSD 196741
_audit_creation_date 2017-08-01
_chemical_name_systematic 'Vanadium deuteride (4/3)'
_chemical_formula_structural 'V4 D3'
_chemical_formula_sum 'D3 V4'
_exptl_crystal_density_diffrn 5.84
_cell_measurement_temperature 300.
_publ_section_title
'Structural transitions at low temperatures in vanadium deuterides'
loop_
_citation_id
_citation_journal_full
_citation_year
_citation_journal_volume
_citation_page_first
_citation_page_last
_citation_journal_id_ASTM
primary 'Journal of Applied Crystallography' 1973 6 206 216 JACGAR
loop_
_publ_author_name
'Westlake, D.G.'
'Mueller, M.H.'
'Knott, H.W.'
_cell_length_a 4.46
_cell_length_b 6.
_cell_length_c 4.46
_cell_angle_alpha 90.
_cell_angle_beta 90.
_cell_angle_gamma 90.
_cell_volume 119.35
_cell_formula_units_Z 2
_symmetry_space_group_name_H-M 'P 1 2 1'
_symmetry_Int_Tables_number 3
loop_
_symmetry_equiv_pos_site_id
_symmetry_equiv_pos_as_xyz
1 '-x, y, -z'
2 'x, y, z'
loop_
_atom_type_symbol
_atom_type_oxidation_number
V0+ 0
D0+ 0
loop_
_atom_site_label
_atom_site_type_symbol
_atom_site_symmetry_multiplicity
_atom_site_Wyckoff_symbol
_atom_site_fract_x
_atom_site_fract_y
_atom_site_fract_z
_atom_site_B_iso_or_equiv
_atom_site_occupancy
_atom_site_attached_hydrogens
V1 V0+ 2 e 0.25 0.25 0.25 . 1. 0
V2 V0+ 2 e 0.75 0.75 0.75 . 1. 0
V3 V0+ 2 e 0.25 0 0.75 . 1. 0
V4 V0+ 2 e 0.25 0.5 0.75 . 1. 0
D1 D0+ 1 d 0.5 0.25 0.5 . 1. 0
D2 D0+ 1 c 0.5 0.25 0 . 1. 0
D3 D0+ 1 c 0.5 0.75 0 . 1. 0
D4 D0+ 1 b 0 0 0.5 . 1. 0
D5 D0+ 1 a 0 0.5 0 . 1. 0
D6 D0+ 1 a 0 0 0 . 1. 0
#End of TTdata_196741-ICSD