
#(C) 2018 by FIZ Karlsruhe - Leibniz Institute for Information Infrastructure.  All rights reserved.
data_27234-ICSD
_database_code_ICSD 27234
_audit_creation_date 1982-12-31
_chemical_name_systematic '16-Silver dodecaiodide diphosphate'
_chemical_formula_structural 'Ag16 I12 P2 O7'
_chemical_formula_sum 'Ag16 I12 O7 P2'
_exptl_crystal_density_diffrn 6.02
_publ_section_title
'Single-Crystal Growth and Structure Determination of Ag16 I12 P2 O7'
loop_
_citation_id
_citation_journal_full
_citation_year
_citation_journal_volume
_citation_page_first
_citation_page_last
_citation_journal_id_ASTM
primary 'Journal of Solid State Chemistry' 1982 42 183 190 JSSCBI
loop_
_publ_author_name
'Garrett, J.D.'
'Greedan, J.E.'
'Faggiani, R.'
'Carbotte, S.'
'Brown, I.D.'
_cell_length_a 12.054(3)
_cell_length_b 12.054(3)
_cell_length_c 7.504(2)
_cell_angle_alpha 90.
_cell_angle_beta 90.
_cell_angle_gamma 120.
_cell_volume 944.25
_cell_formula_units_Z 1
_symmetry_space_group_name_H-M 'P 6/m c c'
_symmetry_Int_Tables_number 192
_refine_ls_R_factor_all 0.084
loop_
_symmetry_equiv_pos_site_id
_symmetry_equiv_pos_as_xyz
1 'x, x-y, z+1/2'
2 '-x+y, y, z+1/2'
3 '-y, -x, z+1/2'
4 'x, x-y, -z+1/2'
5 '-x+y, y, -z+1/2'
6 '-y, -x, -z+1/2'
7 'x-y, x, z'
8 'y, -x+y, z'
9 '-x, -y, z'
10 'x-y, x, -z'
11 'y, -x+y, -z'
12 '-x, -y, -z'
13 '-x, -x+y, -z+1/2'
14 'x-y, -y, -z+1/2'
15 'y, x, -z+1/2'
16 '-x, -x+y, z+1/2'
17 'x-y, -y, z+1/2'
18 'y, x, z+1/2'
19 '-x+y, -x, -z'
20 '-y, x-y, -z'
21 'x, y, -z'
22 '-x+y, -x, z'
23 '-y, x-y, z'
24 'x, y, z'
loop_
_atom_type_symbol
_atom_type_oxidation_number
Ag1+ 1
I1- -1
P5+ 5
O2- -2
loop_
_atom_site_label
_atom_site_type_symbol
_atom_site_symmetry_multiplicity
_atom_site_Wyckoff_symbol
_atom_site_fract_x
_atom_site_fract_y
_atom_site_fract_z
_atom_site_B_iso_or_equiv
_atom_site_occupancy
_atom_site_attached_hydrogens
Ag1 Ag1+ 6 f 0.5 0 0.25 . 0.52 0
Ag2 Ag1+ 24 m 0.0947(20) 0.4747(19) 0.1605(28) . 0.12 0
Ag3 Ag1+ 24 m 0.2488(7) 0.9470(8) 0.1754(16) . 0.29 0
Ag4 Ag1+ 12 l 0.0489(11) 0.2467(14) 0 . 0.26 0
I1 I1- 12 l 0.4500(2) 0.1479(2) 0 . 1. 0
P1 P5+ 4 e 0 0 0.2018(24) . 0.5 0
O1 O2- 12 l 0.05 0.02 0 0.134(45) 0.083 0
O2 O2- 24 m 0.1 0.05 0.35 0.060(45) 0.083 0
O3 O2- 24 m -.08 -.15 0.2 0.031(45) 0.083 0
O4 O2- 24 m -.1 0.04 0.2 0.066(45) 0.083 0
loop_
_atom_site_aniso_label
_atom_site_aniso_type_symbol
_atom_site_aniso_U_11
_atom_site_aniso_U_22
_atom_site_aniso_U_33
_atom_site_aniso_U_12
_atom_site_aniso_U_13
_atom_site_aniso_U_23
Ag1 Ag1+ 0.170(6) 0.170(6) 0.086(5) 0.085(3) 0 0
Ag2 Ag1+ 0.138(16) 0.180(21) 0.092(12) 0.080(16) -.027(11) 0.004(12)
Ag3 Ag1+ 0.107(5) 0.105(5) 0.232(14) 0.055(4) 0.063(7) 0.065(7)
Ag4 Ag1+ 0.074(6) 0.142(11) 0.133(10) 0.041(7) 0 0
I1 I1- 0.080(1) 0.062(1) 0.067(1) 0.035(1) 0 0
P1 P5+ 0.043(7) 0.043(7) 0.064(19) 0.021(4) 0 0
#End of TTdata_27234-ICSD