#------------------------------------------------------------------------------
#$Date: 2017-10-14 23:18:49 +0300 (Sat, 14 Oct 2017) $
#$Revision: 202019 $
#$URL: file:///home/coder/svn-repositories/cod/cif/9/00/76/9007609.cif $
#------------------------------------------------------------------------------
#
# This file is available in the Crystallography Open Database (COD),
# http://www.crystallography.net/. The original data for this entry
# were provided the American Mineralogist Crystal Structure Database,
# http://rruff.geo.arizona.edu/AMS/amcsd.php
#
# The file may be used within the scientific community so long as
# proper attribution is given to the journal article from which the
# data were obtained.
#
data_9007609
loop_
_publ_author_name
'Svensson, C.'
_publ_section_title
;
 Refinement of the crystal structure of cubic antiomony trioxide, Sb2O3
 Locality: synthetic
;
_journal_name_full               'Acta Crystallographica, Section B'
_journal_page_first              2016
_journal_page_last               2018
_journal_paper_doi               10.1107/S0567740875006759
_journal_volume                  31
_journal_year                    1975
_chemical_formula_sum            'O3 Sb2'
_chemical_name_mineral           Senarmontite
_space_group_IT_number           227
_symmetry_space_group_name_Hall  'F 4d 2 3 -1d'
_symmetry_space_group_name_H-M   'F d -3 m :1'
_cell_angle_alpha                90
_cell_angle_beta                 90
_cell_angle_gamma                90
_cell_length_a                   11.1519
_cell_length_b                   11.1519
_cell_length_c                   11.1519
_cell_volume                     1386.905
_exptl_crystal_density_diffrn    5.584
_cod_original_sg_symbol_H-M      'F d -3 m'
_cod_original_formula_sum        'Sb2 O3'
_cod_database_code               9007609
loop_
_symmetry_equiv_pos_as_xyz
x,y,z
x,1/2+y,1/2+z
1/2+x,y,1/2+z
1/2+x,1/2+y,z
3/4+z,3/4-x,1/4+y
3/4+z,1/4-x,3/4+y
1/4+z,3/4-x,3/4+y
1/4+z,1/4-x,1/4+y
-y,1/2+z,1/2-x
-y,+z,-x
1/2-y,1/2+z,-x
1/2-y,+z,1/2-x
3/4+x,3/4-y,1/4+z
3/4+x,1/4-y,3/4+z
1/4+x,3/4-y,3/4+z
1/4+x,1/4-y,1/4+z
-z,1/2+x,1/2-y
-z,+x,-y
1/2-z,1/2+x,-y
1/2-z,+x,1/2-y
3/4+y,3/4-z,1/4+x
3/4+y,1/4-z,3/4+x
1/4+y,3/4-z,3/4+x
1/4+y,1/4-z,1/4+x
-x,1/2+y,1/2-z
-x,+y,-z
1/2-x,1/2+y,-z
1/2-x,+y,1/2-z
1/2+x,-z,1/2-y
1/2+x,1/2-z,-y
+x,-z,-y
+x,1/2-z,1/2-y
3/4-z,3/4+y,1/4+x
3/4-z,1/4+y,3/4+x
1/4-z,3/4+y,3/4+x
1/4-z,1/4+y,1/4+x
1/2+y,-x,1/2-z
1/2+y,1/2-x,-z
+y,-x,-z
+y,1/2-x,1/2-z
3/4-x,3/4+z,1/4+y
3/4-x,1/4+z,3/4+y
1/4-x,3/4+z,3/4+y
1/4-x,1/4+z,1/4+y
1/2+z,-y,1/2-x
1/2+z,1/2-y,-x
+z,-y,-x
+z,1/2-y,1/2-x
3/4-y,3/4+x,1/4+z
3/4-y,1/4+x,3/4+z
1/4-y,3/4+x,3/4+z
1/4-y,1/4+x,1/4+z
x,1/2+z,1/2+y
x,+z,+y
1/2+x,1/2+z,+y
1/2+x,+z,1/2+y
1/4-z,3/4-y,3/4-x
1/4-z,1/4-y,1/4-x
3/4-z,3/4-y,1/4-x
3/4-z,1/4-y,3/4-x
y,1/2+x,1/2+z
y,+x,+z
1/2+y,1/2+x,+z
1/2+y,+x,1/2+z
1/4-x,3/4-z,3/4-y
1/4-x,1/4-z,1/4-y
3/4-x,3/4-z,1/4-y
3/4-x,1/4-z,3/4-y
z,1/2+y,1/2+x
z,+y,+x
1/2+z,1/2+y,+x
1/2+z,+y,1/2+x
1/4-y,3/4-x,3/4-z
1/4-y,1/4-x,1/4-z
3/4-y,3/4-x,1/4-z
3/4-y,1/4-x,3/4-z
3/4+z,1/4+x,3/4-y
3/4+z,3/4+x,1/4-y
1/4+z,1/4+x,1/4-y
1/4+z,3/4+x,3/4-y
-y,1/2-z,1/2+x
-y,-z,+x
1/2-y,1/2-z,+x
1/2-y,-z,1/2+x
3/4+x,1/4+y,3/4-z
3/4+x,3/4+y,1/4-z
1/4+x,1/4+y,1/4-z
1/4+x,3/4+y,3/4-z
-z,1/2-x,1/2+y
-z,-x,+y
1/2-z,1/2-x,+y
1/2-z,-x,1/2+y
3/4+y,1/4+z,3/4-x
3/4+y,3/4+z,1/4-x
1/4+y,1/4+z,1/4-x
1/4+y,3/4+z,3/4-x
-x,1/2-y,1/2+z
-x,-y,+z
1/2-x,1/2-y,+z
1/2-x,-y,1/2+z
1/4-z,3/4+x,3/4+y
1/4-z,1/4+x,1/4+y
3/4-z,3/4+x,1/4+y
3/4-z,1/4+x,3/4+y
y,-z,-x
y,1/2-z,1/2-x
1/2+y,-z,1/2-x
1/2+y,1/2-z,-x
1/4-x,3/4+y,3/4+z
1/4-x,1/4+y,1/4+z
3/4-x,3/4+y,1/4+z
3/4-x,1/4+y,3/4+z
z,-x,-y
z,1/2-x,1/2-y
1/2+z,-x,1/2-y
1/2+z,1/2-x,-y
1/4-y,3/4+z,3/4+x
1/4-y,1/4+z,1/4+x
3/4-y,3/4+z,1/4+x
3/4-y,1/4+z,3/4+x
x,-y,-z
x,1/2-y,1/2-z
1/2+x,-y,1/2-z
1/2+x,1/2-y,-z
1/2-x,1/2+z,-y
1/2-x,+z,1/2-y
-x,1/2+z,1/2-y
-x,+z,-y
1/4+z,3/4-y,3/4+x
1/4+z,1/4-y,1/4+x
3/4+z,3/4-y,1/4+x
3/4+z,1/4-y,3/4+x
1/2-y,1/2+x,-z
1/2-y,+x,1/2-z
-y,1/2+x,1/2-z
-y,+x,-z
1/4+x,3/4-z,3/4+y
1/4+x,1/4-z,1/4+y
3/4+x,3/4-z,1/4+y
3/4+x,1/4-z,3/4+y
1/2-z,1/2+y,-x
1/2-z,+y,1/2-x
-z,1/2+y,1/2-x
-z,+y,-x
1/4+y,3/4-x,3/4+z
1/4+y,1/4-x,1/4+z
3/4+y,3/4-x,1/4+z
3/4+y,1/4-x,3/4+z
-x,-z,y
-x,1/2-z,1/2+y
1/2-x,-z,1/2+y
1/2-x,1/2-z,y
3/4+z,3/4+y,1/4-x
3/4+z,1/4+y,3/4-x
1/4+z,3/4+y,3/4-x
1/4+z,1/4+y,1/4-x
-y,-x,z
-y,1/2-x,1/2+z
1/2-y,-x,1/2+z
1/2-y,1/2-x,z
3/4+x,3/4+z,1/4-y
3/4+x,1/4+z,3/4-y
1/4+x,3/4+z,3/4-y
1/4+x,1/4+z,1/4-y
-z,-y,x
-z,1/2-y,1/2+x
1/2-z,-y,1/2+x
1/2-z,1/2-y,x
3/4+y,3/4+x,1/4-z
3/4+y,1/4+x,3/4-z
1/4+y,3/4+x,3/4-z
1/4+y,1/4+x,1/4-z
1/4-z,1/4-x,1/4-y
1/4-z,3/4-x,3/4-y
3/4-z,1/4-x,3/4-y
3/4-z,3/4-x,1/4-y
y,z,x
y,1/2+z,1/2+x
1/2+y,z,1/2+x
1/2+y,1/2+z,x
1/4-x,1/4-y,1/4-z
1/4-x,3/4-y,3/4-z
3/4-x,1/4-y,3/4-z
3/4-x,3/4-y,1/4-z
z,x,y
z,1/2+x,1/2+y
1/2+z,x,1/2+y
1/2+z,1/2+x,y
1/4-y,1/4-z,1/4-x
1/4-y,3/4-z,3/4-x
3/4-y,1/4-z,3/4-x
3/4-y,3/4-z,1/4-x
loop_
_atom_site_aniso_label
_atom_site_aniso_U_11
_atom_site_aniso_U_22
_atom_site_aniso_U_33
_atom_site_aniso_U_12
_atom_site_aniso_U_13
_atom_site_aniso_U_23
Sb 0.00993 0.00993 0.00993 -0.00130 -0.00130 -0.00130
O 0.01266 0.01279 0.01279 0.00000 0.00000 0.00340
loop_
_atom_site_label
_atom_site_fract_x
_atom_site_fract_y
_atom_site_fract_z
Sb 0.88527 0.88527 0.88527
O 0.18625 0.00000 0.00000
loop_
_cod_related_entry_id
_cod_related_entry_database
_cod_related_entry_code
1 ChemSpider 17616662
