
#(C) 2018 by FIZ Karlsruhe - Leibniz Institute for Information Infrastructure.  All rights reserved.
data_43538-ICSD
_database_code_ICSD 43538
_audit_creation_date 2000-07-15
_chemical_name_systematic 'Tantalum deuteride (2/1) - beta 1'
_chemical_formula_structural 'Ta2 D'
_chemical_formula_sum 'D1 Ta2'
_exptl_crystal_density_diffrn 15.67
_cell_measurement_temperature 4.
_publ_section_title

;
Neutron diffraction data for Ta2D and the probable arrangement of the
deuteriums in two of its polymorphic varieties
;
loop_
_citation_id
_citation_journal_full
_citation_year
_citation_journal_volume
_citation_page_first
_citation_page_last
_citation_journal_id_ASTM
primary 'Journal of Chemical Physics' 1961 35 2156 2164 JCPSA6
loop_
_publ_author_name
'Wallace, W.E.'
_cell_length_a 6.74
_cell_length_b 6.74
_cell_length_c 6.79
_cell_angle_alpha 90.
_cell_angle_beta 90.
_cell_angle_gamma 90.
_cell_volume 308.45
_cell_formula_units_Z 8
_symmetry_space_group_name_H-M 'I 4'
_symmetry_Int_Tables_number 79
loop_
_symmetry_equiv_pos_site_id
_symmetry_equiv_pos_as_xyz
1 'y, -x, z'
2 '-y, x, z'
3 '-x, -y, z'
4 'x, y, z'
5 'y+1/2, -x+1/2, z+1/2'
6 '-y+1/2, x+1/2, z+1/2'
7 '-x+1/2, -y+1/2, z+1/2'
8 'x+1/2, y+1/2, z+1/2'
loop_
_atom_type_symbol
_atom_type_oxidation_number
Ta0+ 0
D0+ 0
loop_
_atom_site_label
_atom_site_type_symbol
_atom_site_symmetry_multiplicity
_atom_site_Wyckoff_symbol
_atom_site_fract_x
_atom_site_fract_y
_atom_site_fract_z
_atom_site_B_iso_or_equiv
_atom_site_occupancy
_atom_site_attached_hydrogens
Ta1 Ta0+ 2 a 0 0 0 . 1. 0
Ta2 Ta0+ 2 a 0 0 0.5 . 1. 0
Ta3 Ta0+ 4 b 0.5 0 0.5 . 1. 0
Ta4 Ta0+ 8 c 0.25 0.25 0.25 . 1. 0
D1 D0+ 8 c 0.25 0.125 0 . 0.5 0
D2 D0+ 8 c 0.375 0 0.25 . 0.5 0
#End of TTdata_43538-ICSD