
#(C) 2018 by FIZ Karlsruhe - Leibniz Institute for Information Infrastructure.  All rights reserved.
data_10457-ICSD
_database_code_ICSD 10457
_audit_creation_date 1980-12-31
_chemical_name_systematic 'Niobium iodide'
_chemical_formula_structural 'Nb I5'
_chemical_formula_sum 'I5 Nb1'
_chemical_name_structure_type UBr5
_exptl_crystal_density_diffrn 5.31
_publ_section_title
'Darstellung, Struktur und Eigenschaften einer neuen Modifikation von Nb I5'
loop_
_citation_id
_citation_journal_full
_citation_year
_citation_journal_volume
_citation_page_first
_citation_page_last
_citation_journal_id_ASTM
primary

;
Zeitschrift fuer Naturforschung, Teil B. Anorganische Chemie, Organische
Chemie (33,1978-41,1986)
; 1980 35 12 16 ZNBAD2
loop_
_publ_author_name
'Krebs, B.'
'Sinram, D.'
_cell_length_a 7.591(3)
_cell_length_b 10.322(3)
_cell_length_c 6.977(2)
_cell_angle_alpha 90.93(3)
_cell_angle_beta 116.17(3)
_cell_angle_gamma 109.07(3)
_cell_volume 455.35
_cell_formula_units_Z 2
_symmetry_space_group_name_H-M 'P -1'
_symmetry_Int_Tables_number 2
_refine_ls_R_factor_all 0.046
loop_
_symmetry_equiv_pos_site_id
_symmetry_equiv_pos_as_xyz
1 '-x, -y, -z'
2 'x, y, z'
loop_
_atom_type_symbol
_atom_type_oxidation_number
Nb5+ 5
I1- -1
loop_
_atom_site_label
_atom_site_type_symbol
_atom_site_symmetry_multiplicity
_atom_site_Wyckoff_symbol
_atom_site_fract_x
_atom_site_fract_y
_atom_site_fract_z
_atom_site_B_iso_or_equiv
_atom_site_occupancy
_atom_site_attached_hydrogens
Nb1 Nb5+ 2 i 0.22431(10) 0.22421(7) 0.10658(11) . 1. 0
I1 I1- 2 i 0.38835(9) 0.14923(6) -.12708(9) . 1. 0
I2 I1- 2 i 0.00512(9) 0.25115(6) 0.31540(9) . 1. 0
I3 I1- 2 i 0.59212(9) 0.33643(6) 0.46177(9) . 1. 0
I4 I1- 2 i 0.18661(10) 0.44153(6) -.07812(10) . 1. 0
I5 I1- 2 i 0.18927(8) -.04548(5) 0.24832(8) . 1. 0
loop_
_atom_site_aniso_label
_atom_site_aniso_type_symbol
_atom_site_aniso_B_11
_atom_site_aniso_B_22
_atom_site_aniso_B_33
_atom_site_aniso_B_12
_atom_site_aniso_B_13
_atom_site_aniso_B_23
Nb1 Nb5+ 1.01(2) 0.95(2) 1.26(3) 0.40(2) 0.49(2) 0.19(2)
I1 I1- 2.07(2) 2.44(3) 2.10(2) 1.21(2) 1.38(2) 0.52(2)
I2 I1- 2.03(2) 2.27(2) 1.99(2) 1.15(2) 1.29(2) 0.43(2)
I3 I1- 1.32(2) 1.13(2) 1.64(2) 0.51(2) 0.05(2) 0.01(2)
I4 I1- 2.11(2) 1.55(2) 2.37(2) 1.04(2) 1.02(2) 1.01(2)
I5 I1- 1.12(2) 2.10(2) 1.22(2) 0.51(1) 0.16(1) 0.35(1)
#End of TTdata_10457-ICSD