
#(C) 2017 by FIZ Karlsruhe - Leibniz Institute for Information Infrastructure.  All rights reserved.
data_260099-ICSD
_database_code_ICSD 260099
_audit_creation_date 2009-02-01
_chemical_name_systematic 'Cadmium antimony (12.5/10)'
_chemical_formula_structural 'Cd12.5 Sb10'
_chemical_formula_sum 'Cd12.5 Sb10'
_exptl_crystal_density_diffrn 6.78
_cell_measurement_temperature 295.
_publ_section_title

;
Metastable Cd4 Sb3: A complex structured intermetallic compound with
semiconductor properties
;
loop_
_citation_id
_citation_journal_full
_citation_year
_citation_journal_volume
_citation_page_first
_citation_page_last
_citation_journal_id_ASTM
primary 'Journal of the American Chemical Society' 2008 130 15564 15572 JACSAT
loop_
_publ_author_name
'Tenga, A.'
'Lidin, S.'
'Belleres, J.P.'
'Newman, N.'
'Wu Yang'
'Haeussermann, U.'
_cell_length_a 11.4975(5)
_cell_length_b 26.1262(10)
_cell_length_c 26.1218(10)
_cell_angle_alpha 90
_cell_angle_beta 100.777(4)
_cell_angle_gamma 90
_cell_volume 7708.23
_cell_formula_units_Z 12
_symmetry_space_group_name_H-M 'P 1 n 1'
_symmetry_Int_Tables_number 7
_refine_ls_R_factor_all 0.0608
loop_
_symmetry_equiv_pos_site_id
_symmetry_equiv_pos_as_xyz
1 'x+1/2, -y, z+1/2'
2 'x, y, z'
loop_
_atom_type_symbol
_atom_type_oxidation_number
Sb0+ 0
Cd0+ 0
loop_
_atom_site_label
_atom_site_type_symbol
_atom_site_symmetry_multiplicity
_atom_site_Wyckoff_symbol
_atom_site_fract_x
_atom_site_fract_y
_atom_site_fract_z
_atom_site_B_iso_or_equiv
_atom_site_occupancy
_atom_site_attached_hydrogens
Sb1 Sb0+ 2 a 1.600263 0.7531(2) 0.692587 0.01608(9) 1 0
Sb2 Sb0+ 2 a 2.1053(8) 0.5012(2) 0.6934(3) 0.01608(9) 1 0
Sb3 Sb0+ 2 a 1.6037(7) 0.7466(2) 0.3626(3) 0.01608(9) 1 0
Sb4 Sb0+ 2 a 1.6057(8) 0.4953(2) 0.8588(4) 0.01608(9) 1 0
Sb5 Sb0+ 2 a 2.0997(7) 0.7476(2) 0.5257(3) 0.01608(9) 1 0
Sb6 Sb0+ 2 a 2.1017(8) 1.0019(2) 0.3591(4) 0.01608(9) 1 0
Sb7 Sb0+ 2 a 1.1045(8) 0.4966(2) 1.0315(4) 0.01608(9) 1 0
Sb8 Sb0+ 2 a 1.5980(8) 0.9986(2) 0.5257(4) 0.01608(9) 1 0
Sb9 Sb0+ 2 a 1.1029(8) 1.2485(2) 0.5272(3) 0.01608(9) 1 0
Sb10 Sb0+ 2 a 1.6017(7) 1.2406(2) 0.3595(3) 0.01608(9) 1 0
Sb11 Sb0+ 2 a 1.1002(8) 0.9929(2) 0.6919(3) 0.01608(9) 1 0
Sb12 Sb0+ 2 a 1.3786(7) 0.4988(2) 0.7901(3) 0.01608(9) 1 0
Sb13 Sb0+ 2 a 1.3833(7) 0.9981(2) 0.4532(3) 0.01608(9) 1 0
Sb14 Sb0+ 2 a 1.3850(8) 0.7520(2) 0.6224(3) 0.01608(9) 1 0
Sb15 Sb0+ 2 a 1.3846(8) 1.2464(2) 0.2858(4) 0.01608(9) 1 0
Sb16 Sb0+ 2 a 1.8823(7) 0.5017(2) 0.6229(3) 0.01608(9) 1 0
Sb17 Sb0+ 2 a 1.8845(6) 0.7500(2) 0.4533(2) 0.01608(9) 1 0
Sb18 Sb0+ 2 a 0.8830(7) 0.9976(2) 0.6170(3) 0.01608(9) 1 0
Sb19 Sb0+ 2 a 0.8869(7) 0.4921(2) 0.9546(3) 0.01608(9) 1 0
Sb20 Sb0+ 2 a 1.3851(8) 0.7434(2) 0.2888(3) 0.01608(9) 1 0
Sb21 Sb0+ 2 a 0.8852(8) 1.2470(2) 0.4569(4) 0.01608(9) 1 0
Sb22 Sb0+ 2 a 1.3806(8) 0.2512(2) 0.6207(3) 0.01608(9) 1 0
Sb23 Sb0+ 2 a 1.8832(7) 1.0031(2) 0.2886(3) 0.01608(9) 1 0
Sb24 Sb0+ 2 a 1.6017(8) 0.2544(2) 0.6918(3) 0.01608(9) 1 0
Sb25 Sb0+ 2 a 1.8112(8) 0.4140(2) 0.7759(3) 0.01657(8) 1 0
Sb26 Sb0+ 2 a 1.6675(8) 0.5876(2) 0.7094(3) 0.01657(8) 1 0
Sb27 Sb0+ 2 a 1.4928(8) 0.8214(2) 0.4901(3) 0.01657(8) 1 0
Sb28 Sb0+ 2 a 1.3154(8) 1.1590(2) 0.4450(3) 0.01657(8) 1 0
Sb29 Sb0+ 2 a 1.3212(8) 0.5913(2) 0.6139(3) 0.01657(8) 1 0
Sb30 Sb0+ 2 a 1.8092(8) 0.8384(2) 0.6066(3) 0.01657(8) 1 0
Sb31 Sb0+ 2 a 1.4924(8) 0.4203(2) 0.9917(3) 0.01657(8) 1 0
Sb32 Sb0+ 2 a 2.1653(8) 0.4103(2) 0.8718(3) 0.01657(8) 1 0
Sb33 Sb0+ 2 a 1.9885(8) 0.6794(2) 0.6588(3) 0.01657(8) 1 0
Sb34 Sb0+ 2 a 1.3123(7) 0.6653(2) 0.7739(3) 0.01657(8) 1 0
Sb35 Sb0+ 2 a 1.3100(8) 1.0847(2) 0.6079(3) 0.01657(8) 1 0
Sb36 Sb0+ 2 a 1.9940(8) 0.5739(2) 0.8252(3) 0.01657(8) 1 0
Sb37 Sb0+ 2 a 1.9919(8) 1.1725(2) 0.3262(3) 0.01657(8) 1 0
Sb38 Sb0+ 2 a 1.4923(8) 0.4290(2) 0.6558(3) 0.01657(8) 1 0
Sb39 Sb0+ 2 a 0.9931(8) 1.0695(2) 0.4922(3) 0.01657(8) 1 0
Sb40 Sb0+ 2 a 2.1626(8) 0.4163(2) 0.5452(3) 0.01657(8) 1 0
Sb41 Sb0+ 2 a 1.6734(8) 0.6598(2) 0.5404(3) 0.01657(8) 1 0
Sb42 Sb0+ 2 a 1.2997(8) 0.5885(2) 0.9476(3) 0.01657(8) 1 0
Sb43 Sb0+ 2 a 1.4900(8) 0.9221(2) 0.6568(3) 0.01657(8) 1 0
Sb44 Sb0+ 2 a 1.4931(8) 0.3273(2) 0.8216(3) 0.01657(8) 1 0
Sb45 Sb0+ 2 a 1.8140(8) 0.9118(2) 0.4395(3) 0.01657(8) 1 0
Sb46 Sb0+ 2 a 1.6806(8) 0.65970(19) 0.8687(3) 0.01657(8) 1 0
Sb47 Sb0+ 2 a 1.4935(8) 0.9276(2) 0.3222(3) 0.01657(8) 1 0
Sb48 Sb0+ 2 a 2.1616(8) 0.8415(2) 0.7000(3) 0.01657(8) 1 0
Sb49 Sb0+ 2 a 1.6687(8) 1.1632(2) 0.5412(3) 0.01657(8) 1 0
Sb50 Sb0+ 2 a 1.8015(7) 0.83349(19) 0.2760(3) 0.01657(8) 1 0
Sb51 Sb0+ 2 a 1.8207(8) 0.3419(2) 0.9479(3) 0.01657(8) 1 0
Sb52 Sb0+ 2 a 0.9914(8) 1.1793(2) 0.6565(3) 0.01657(8) 1 0
Sb53 Sb0+ 2 a 1.4924(8) 1.3229(2) 0.4913(3) 0.01657(8) 1 0
Sb54 Sb0+ 2 a 2.1672(8) 0.8348(2) 0.3764(3) 0.01657(8) 1 0
Sb55 Sb0+ 2 a 1.8121(8) 0.3363(2) 0.6078(3) 0.01657(8) 1 0
Sb56 Sb0+ 2 a 2.1634(8) 0.3410(2) 0.7040(3) 0.01657(8) 1 0
Sb57 Sb0+ 2 a 2.1632(8) 0.9071(2) 0.5338(3) 0.01657(8) 1 0
Sb58 Sb0+ 2 a 1.6798(8) 1.0889(2) 0.7034(3) 0.01657(8) 1 0
Sb59 Sb0+ 2 a 1.6674(8) 1.0882(2) 0.3732(3) 0.01657(8) 1 0
Sb60 Sb0+ 2 a 1.8120(8) 0.9110(2) 0.7779(3) 0.01657(8) 1 0
Cd1 Cd0+ 2 a 1.5606(8) 0.6718(3) 0.7594(4) 0.02438(9) 1 0
Cd2 Cd0+ 2 a 2.1046(9) 0.6025(3) 0.7335(4) 0.02438(9) 1 0
Cd3 Cd0+ 2 a 2.0584(9) 0.4254(3) 0.7638(4) 0.02438(9) 1 0
Cd4 Cd0+ 2 a 1.6181(8) 0.8492(3) 0.4050(4) 0.02438(9) 1 0
Cd5 Cd0+ 2 a 1.5613(8) 1.0780(3) 0.5931(4) 0.02438(9) 1 0
Cd6 Cd0+ 2 a 1.7714(9) 0.5223(3) 0.7949(4) 0.02438(9) 1 0
Cd7 Cd0+ 2 a 2.0611(8) 0.9234(3) 0.4246(4) 0.02438(9) 1 0
Cd8 Cd0+ 2 a 1.6147(9) 0.3980(3) 0.9034(4) 0.02438(9) 1 0
Cd9 Cd0+ 2 a 1.1061(8) 1.1477(3) 0.5693(4) 0.02438(9) 1 0
Cd10 Cd0+ 2 a 2.0543(8) 0.8268(3) 0.5930(4) 0.02438(9) 1 0
Cd11 Cd0+ 2 a 1.6041(9) 0.8995(3) 0.5653(4) 0.02438(9) 1 0
Cd12 Cd0+ 2 a 1.7648(9) 0.7298(3) 0.6292(4) 0.02438(9) 1 0
Cd13 Cd0+ 2 a 1.7659(9) 1.0207(3) 0.4631(4) 0.02438(9) 1 0
Cd14 Cd0+ 2 a 1.6087(8) 0.3557(3) 0.7313(4) 0.02438(9) 1 0
Cd15 Cd0+ 2 a 1.4204(8) 0.5756(3) 0.7222(4) 0.02438(9) 1 0
Cd16 Cd0+ 2 a 1.8718(8) 0.6509(3) 0.7442(4) 0.02438(9) 1 0
Cd17 Cd0+ 2 a 1.5682(8) 0.6683(3) 0.4355(4) 0.02438(9) 1 0
Cd18 Cd0+ 2 a 1.2602(8) 0.9713(2) 0.6219(4) 0.02438(9) 1 0
Cd19 Cd0+ 2 a 1.3742(8) 0.3496(3) 0.9120(4) 0.02438(9) 1 0
Cd20 Cd0+ 2 a 1.5680(8) 1.1650(3) 0.4329(4) 0.02438(9) 1 0
Cd21 Cd0+ 2 a 1.3807(9) 0.8975(3) 0.4136(4) 0.02438(9) 1 0
Cd22 Cd0+ 2 a 1.2524(8) 0.4616(2) 0.9682(4) 0.02438(9) 1 0
Cd23 Cd0+ 2 a 1.0682(9) 0.4173(3) 1.1016(4) 0.02438(9) 1 0
Cd24 Cd0+ 2 a 2.2736(9) 0.4843(3) 0.6347(4) 0.02438(9) 1 0
Cd25 Cd0+ 2 a 1.2750(9) 1.2671(3) 0.4628(4) 0.02438(9) 1 0
Cd26 Cd0+ 2 a 1.7523(9) 1.2188(3) 0.2902(4) 0.02438(9) 1 0
Cd27 Cd0+ 2 a 2.2773(9) 0.7690(3) 0.4655(4) 0.02438(9) 1 0
Cd28 Cd0+ 2 a 0.8702(9) 1.0994(3) 0.5774(4) 0.02438(9) 1 0
Cd29 Cd0+ 2 a 2.1136(9) 1.1001(3) 0.4065(4) 0.02438(9) 1 0
Cd30 Cd0+ 2 a 1.7198(9) 0.4776(3) 0.6844(4) 0.02438(9) 1 0
Cd31 Cd0+ 2 a 1.9222(8) 0.4165(3) 0.8805(4) 0.02438(9) 1 0
Cd32 Cd0+ 2 a 2.1187(9) 0.6522(3) 0.5737(4) 0.02438(9) 1 0
Cd33 Cd0+ 2 a 1.3674(9) 0.8488(3) 0.5756(4) 0.02438(9) 1 0
Cd34 Cd0+ 2 a 1.9109(8) 0.8294(3) 0.3869(4) 0.02438(9) 1 0
Cd35 Cd0+ 2 a 1.2124(9) 1.0168(3) 0.5148(4) 0.02438(9) 1 0
Cd36 Cd0+ 2 a 2.2100(8) 0.5175(3) 0.8550(4) 0.02438(9) 1 0
Cd37 Cd0+ 2 a 1.7179(9) 0.7704(3) 0.5181(4) 0.02438(9) 1 0
Cd38 Cd0+ 2 a 1.3698(9) 0.4011(3) 0.7424(4) 0.02438(9) 1 0
Cd39 Cd0+ 2 a 1.9183(9) 0.3347(3) 0.7154(4) 0.02438(9) 1 0
Cd40 Cd0+ 2 a 1.4192(8) 1.1736(3) 0.5516(4) 0.02438(9) 1 0
Cd41 Cd0+ 2 a 1.6135(8) 0.8493(3) 0.7368(4) 0.02438(9) 1 0
Cd42 Cd0+ 2 a 1.8737(8) 1.1453(3) 0.4178(4) 0.02438(9) 1 0
Cd43 Cd0+ 2 a 2.2125(9) 0.7297(3) 0.6819(4) 0.02438(9) 1 0
Cd44 Cd0+ 2 a 1.9135(8) 0.9183(3) 0.5468(4) 0.02438(9) 1 0
Cd45 Cd0+ 2 a 1.0663(9) 1.3265(3) 0.5955(4) 0.02438(9) 1 0
Cd46 Cd0+ 2 a 1.2395(8) 0.5352(2) 0.5242(4) 0.02438(9) 1 0
Cd47 Cd0+ 2 a 1.1190(8) 0.5993(3) 1.0732(4) 0.02438(9) 1 0
Cd48 Cd0+ 2 a 1.2279(8) 1.2211(2) 0.3517(4) 0.02438(9) 1 0
Cd49 Cd0+ 2 a 2.2656(8) 0.9801(3) 0.2948(4) 0.02438(9) 1 0
Cd50 Cd0+ 2 a 1.0655(9) 0.9174(3) 0.7661(4) 0.02438(9) 1 0
Cd51 Cd0+ 2 a 1.3808(9) 0.3980(3) 1.0843(4) 0.02438(9) 1 0
Cd52 Cd0+ 2 a 1.7167(9) 0.7665(3) 0.1877(4) 0.02438(9) 1 0
Cd53 Cd0+ 2 a 1.4233(9) 1.0773(3) 0.3855(4) 0.02438(9) 1 0
Cd54 Cd0+ 2 a 1.7500(8) 0.7110(2) 0.2983(4) 0.02438(9) 1 0
Cd55 Cd0+ 2 a 1.7688(9) 0.2259(3) 0.6296(4) 0.02438(9) 1 0
Cd56 Cd0+ 2 a 1.7319(8) 0.2802(3) 0.8592(4) 0.02438(9) 1 0
Cd57 Cd0+ 2 a 1.7112(9) 0.9768(3) 0.3516(4) 0.02438(9) 1 0
Cd58 Cd0+ 2 a 1.8681(9) 1.1023(3) 0.2439(4) 0.02438(9) 1 0
Cd59 Cd0+ 2 a 1.9102(9) 0.8323(3) 0.7137(4) 0.02438(9) 1 0
Cd60 Cd0+ 2 a 1.3777(8) 0.3525(3) 0.5814(4) 0.02438(9) 1 0
Cd61 Cd0+ 2 a 1.7120(9) 1.2711(3) 0.5186(4) 0.02438(9) 1 0
Cd62 Cd0+ 2 a 1.9153(8) 0.4197(3) 0.5556(4) 0.02438(9) 1 0
Cd63 Cd0+ 2 a 1.7273(8) 0.9687(2) 0.6839(4) 0.02438(9) 1 0
Cd64 Cd0+ 2 a 1.4301(8) 0.6751(3) 0.5561(4) 0.02438(9) 1 0
Cd65 Cd0+ 2 a 0.9497(8) 1.0817(2) 0.7059(4) 0.0237(3) 1.050(13) 0
Cd66 Cd0+ 2 a 0.5155(10) 1.2252(3) 0.7841(4) 0.0237(3) 0.7836 0
Cd67 Cd0+ 2 a 1.0412(10) 1.1681(3) 0.7754(4) 0.0237(3) 0.7836 0
Cd68 Cd0+ 2 a 1.2472(8) 1.0776(2) 0.7150(4) 0.0237(3) 0.7836 0
Cd69 Cd0+ 2 a 1.4884(9) 1.0227(3) 0.7048(4) 0.0237(3) 0.7836 0
Cd70 Cd0+ 2 a 0.4594(8) 1.1514(2) 0.6960(3) 0.0237(3) 0.7836 0
Cd71 Cd0+ 2 a 0.7764(8) 1.1537(2) 0.7915(4) 0.0237(3) 0.7836 0
Cd72 Cd0+ 2 a 1.0407(10) 0.5820(3) 0.9433(4) 0.0237(3) 0.7836 0
Cd73 Cd0+ 2 a 1.4505(10) 1.3305(3) 0.3750(4) 0.0237(3) 0.7836 0
Cd74 Cd0+ 2 a 1.5206(9) 0.5262(3) 0.9574(4) 0.0237(3) 0.7836 0
Cd75 Cd0+ 2 a 1.4587(10) 0.7226(3) 0.8613(4) 0.0237(3) 0.7836 0
Cd76 Cd0+ 2 a 1.4622(8) 0.5988(2) 0.8645(4) 0.0237(3) 0.7836 0
Cd77 Cd0+ 2 a 1.2442(8) 0.6712(2) 0.8780(4) 0.0237(3) 0.7836 0
Cd78 Cd0+ 2 a 1.2702(8) 0.4049(2) 0.4579(4) 0.0237(3) 0.7836 0
#End of TTdata_260099-ICSD