
#(C) 2017 by FIZ Karlsruhe - Leibniz Institute for Information Infrastructure.  All rights reserved.
data_23907-ICSD
_database_code_ICSD 23907
_audit_creation_date 1980-01-01
_audit_update_record 2012-02-01
_chemical_name_systematic 'Palladium selenide (17/15)'
_chemical_formula_structural 'Pd17 Se15'
_chemical_formula_sum 'Pd17 Se15'
_chemical_name_structure_type Pd17Se15
_chemical_name_mineral Palladseite
_exptl_crystal_density_diffrn 8.33
_publ_section_title 'The crystal structure of Pd17 Se15'
loop_
_citation_id
_citation_journal_full
_citation_year
_citation_journal_volume
_citation_page_first
_citation_page_last
_citation_journal_id_ASTM
primary 'Acta Crystallographica (1,1948-23,1967)' 1962 15 713 721 ACCRA9
loop_
_publ_author_name
'Geller, S.'
_cell_length_a 10.606
_cell_length_b 10.606
_cell_length_c 10.606
_cell_angle_alpha 90.
_cell_angle_beta 90.
_cell_angle_gamma 90.
_cell_volume 1193.04
_cell_formula_units_Z 2
_symmetry_space_group_name_H-M 'P m -3 m'
_symmetry_Int_Tables_number 221
_refine_ls_R_factor_all 0.115
loop_
_symmetry_equiv_pos_site_id
_symmetry_equiv_pos_as_xyz
1 'z, y, -x'
2 'y, x, -z'
3 'x, z, -y'
4 'z, x, -y'
5 'y, z, -x'
6 'x, y, -z'
7 'z, -y, x'
8 'y, -x, z'
9 'x, -z, y'
10 'z, -x, y'
11 'y, -z, x'
12 'x, -y, z'
13 '-z, y, x'
14 '-y, x, z'
15 '-x, z, y'
16 '-z, x, y'
17 '-y, z, x'
18 '-x, y, z'
19 '-z, -y, -x'
20 '-y, -x, -z'
21 '-x, -z, -y'
22 '-z, -x, -y'
23 '-y, -z, -x'
24 '-x, -y, -z'
25 '-z, -y, x'
26 '-y, -x, z'
27 '-x, -z, y'
28 '-z, -x, y'
29 '-y, -z, x'
30 '-x, -y, z'
31 '-z, y, -x'
32 '-y, x, -z'
33 '-x, z, -y'
34 '-z, x, -y'
35 '-y, z, -x'
36 '-x, y, -z'
37 'z, -y, -x'
38 'y, -x, -z'
39 'x, -z, -y'
40 'z, -x, -y'
41 'y, -z, -x'
42 'x, -y, -z'
43 'z, y, x'
44 'y, x, z'
45 'x, z, y'
46 'z, x, y'
47 'y, z, x'
48 'x, y, z'
loop_
_atom_type_symbol
_atom_type_oxidation_number
Pd0+ 0
Se0+ 0
loop_
_atom_site_label
_atom_site_type_symbol
_atom_site_symmetry_multiplicity
_atom_site_Wyckoff_symbol
_atom_site_fract_x
_atom_site_fract_y
_atom_site_fract_z
_atom_site_B_iso_or_equiv
_atom_site_occupancy
_atom_site_attached_hydrogens
Pd1 Pd0+ 24 m 0.3521(3) 0.3521(3) 0.1501(5) 0.15 1. 0
Pd2 Pd0+ 6 e 0 0 0.2378(12) 0.09 1. 0
Pd3 Pd0+ 3 d 0 0 0.5 -.21 1. 0
Pd4 Pd0+ 1 b 0.5 0.5 0.5 0.17 1. 0
Se1 Se0+ 12 j 0.1684(7) 0.1684(7) 0.5 -.05 1. 0
Se2 Se0+ 12 i 0.2297(7) 0.2297(7) 0 -.26 1. 0
Se3 Se0+ 6 f 0.5 0.5 0.2571(16) -.3 1. 0
#End of TTdata_23907-ICSD