
#(C) 2018 by FIZ Karlsruhe - Leibniz Institute for Information Infrastructure.  All rights reserved.
data_104616-ICSD
_database_code_ICSD 104616
_audit_creation_date 2004-10-01
_audit_update_record 2012-02-01
_chemical_name_systematic 'Aluminum gold (1/4) - HT, HP'
_chemical_formula_structural 'Al Au4'
_chemical_formula_sum 'Al1 Au4'
_chemical_name_structure_type AlAu4
_exptl_crystal_density_diffrn 16.31
_publ_section_title

;
Zur Kenntnis des beta-Mangan-Typs: Hochdrucksynthese und Strukturverfeinerung
von Al Au4
;
loop_
_citation_id
_citation_journal_full
_citation_year
_citation_journal_volume
_citation_page_first
_citation_page_last
_citation_journal_id_ASTM
primary 'Journal of the Less-Common Metals' 1990 161 347 354 JCOMAH
loop_
_publ_author_name
'Buechler, H.'
'Range, K.J.'
_cell_length_a 6.9227(3)
_cell_length_b 6.9227
_cell_length_c 6.9227
_cell_angle_alpha 90.
_cell_angle_beta 90.
_cell_angle_gamma 90.
_cell_volume 331.76
_cell_formula_units_Z 4
_symmetry_space_group_name_H-M 'P 21 3'
_symmetry_Int_Tables_number 198
_refine_ls_R_factor_all 0.042
loop_
_symmetry_equiv_pos_site_id
_symmetry_equiv_pos_as_xyz
1 '-z+1/2, -x, y+1/2'
2 '-y+1/2, -z, x+1/2'
3 '-x+1/2, -y, z+1/2'
4 '-z, x+1/2, -y+1/2'
5 '-y, z+1/2, -x+1/2'
6 '-x, y+1/2, -z+1/2'
7 'z+1/2, -x+1/2, -y'
8 'y+1/2, -z+1/2, -x'
9 'x+1/2, -y+1/2, -z'
10 'z, x, y'
11 'y, z, x'
12 'x, y, z'
loop_
_atom_type_symbol
_atom_type_oxidation_number
Al0+ 0
Au0+ 0
loop_
_atom_site_label
_atom_site_type_symbol
_atom_site_symmetry_multiplicity
_atom_site_Wyckoff_symbol
_atom_site_fract_x
_atom_site_fract_y
_atom_site_fract_z
_atom_site_B_iso_or_equiv
_atom_site_occupancy
_atom_site_attached_hydrogens
Al1 Al0+ 4 a 0.6903(20) 0.6903 0.6903 0.78(34) 1. 0
Au1 Au0+ 4 a 0.0673(2) 0.0673 0.0673 0.06(4) 1. 0
Au2 Au0+ 12 b 0.1328(2) 0.2007(2) 0.4625(2) 0.07(2) 1. 0
#End of TTdata_104616-ICSD