
#(C) 2017 by FIZ Karlsruhe - Leibniz Institute for Information Infrastructure.  All rights reserved.
data_241341-ICSD
_database_code_ICSD 241341
_audit_creation_date 2017-08-01
_chemical_name_systematic 'Bismuth oxide sulfate (12.67/14/5)'
_chemical_formula_structural 'Bi12.67 O14 (S O4)5'
_chemical_formula_sum 'Bi12.67 O34 S5'
_chemical_name_mineral Leguernite
_exptl_crystal_density_diffrn 7.44
_publ_section_title

;
Leguernite, Bi12.67 O14 (S O4)5, a new Bi oxysulfate from the fumarole deposit
of La Fossa crater, Vulcano, Aeolian Islands, Italy
;
loop_
_citation_id
_citation_journal_full
_citation_year
_citation_journal_volume
_citation_page_first
_citation_page_last
_citation_journal_id_ASTM
primary 'Mineralogical Magazine (1969-)' 2014 78 1629 1645 MNLMBB
loop_
_publ_author_name
'Garavelli, Anna'
'Pinto, Daniela'
'Mitolo, Donatella'
'Bindi, Luca'
_cell_length_a 11.2486(11)
_cell_length_b 5.6568(6)
_cell_length_c 11.9139(10)
_cell_angle_alpha 90
_cell_angle_beta 99.177
_cell_angle_gamma 90
_cell_volume 748.39
_cell_formula_units_Z 1
_symmetry_space_group_name_H-M 'P 1 2 1'
_symmetry_Int_Tables_number 3
_refine_ls_R_factor_all 0.0766
loop_
_symmetry_equiv_pos_site_id
_symmetry_equiv_pos_as_xyz
1 '-x, y, -z'
2 'x, y, z'
loop_
_atom_type_symbol
_atom_type_oxidation_number
Bi3+ 3
S6+ 6
O2- -2
loop_
_atom_site_label
_atom_site_type_symbol
_atom_site_symmetry_multiplicity
_atom_site_Wyckoff_symbol
_atom_site_fract_x
_atom_site_fract_y
_atom_site_fract_z
_atom_site_B_iso_or_equiv
_atom_site_occupancy
_atom_site_attached_hydrogens
Bi1 Bi3+ 2 e 0.33418(18) 0.2978(3) 0.01006(15) 0.0123(4) 1. 0
Bi2 Bi3+ 2 e 0.53822(17) 0.7996(3) 0.15842(15) 0.0125(4) 1. 0
Bi3 Bi3+ 2 e 0.21076(15) 0.7118(6) 0.19423(14) 0.0151(4) 1. 0
Bi4 Bi3+ 2 e 0.40591(15) 0.2143(5) 0.32991(12) 0.0141(4) 1. 0
Bi5 Bi3+ 2 e 0.25801(14) 0.2204(5) 0.69433(12) 0.0106(4) 1. 0
Bi6 Bi3+ 2 e 0.13281(16) 0.7240(5) -0.13890(14) 0.0161(4) 1. 0
Bi7 Bi3+ 1 b 0 0.7366(12) 0.5 0.0315(13) 0.67 0
S1 S6+ 2 e 0.3263(9) 0.697(3) 0.5350(8) 0.015(2) 1. 0
S2 S6+ 2 e 0.072(10) 0.217(4) 0.3548(9) 0.020(2) 1. 0
S3 S6+ 1 a 0 0.198(5) 0 0.015(3) 1. 0
O1 O2- 2 e 0.214(2) 0.692(10) 0.587(3) 0.029(8) 1. 0
O2 O2- 2 e 0.398(4) 0.915(6) 0.564(4) 0.041(13) 1. 0
O3 O2- 2 e 0.392(5) 0.483(7) 0.582(5) 0.0063(17) 1. 0
O4 O2- 2 e 0.298(5) 0.737(13) 0.409(2) 0.068(16) 1. 0
O5 O2- 2 e 0.009(3) 0.446(5) 0.343(3) 0.028(9) 1. 0
O6 O2- 2 e 0.118(3) 0.176(11) 0.477(2) 0.045(10) 1. 0
O7 O2- 2 e 0.165(3) 0.233(10) 0.281(3) 0.044(11) 1. 0
O8 O2- 2 e -0.019(4) 0.029(7) 0.316(4) 0.046(13) 1. 0
O9 O2- 2 e 0.112(4) 0.063(11) 0.031(5) 0.09(2) 1. 0
O10 O2- 2 e -0.014(6) 0.344(11) 0.098(4) 0.09(2) 1. 0
O11 O2- 2 e 0.269(3) 0.46918(16) -0.169(3) 0.006(6) 1. 0
O12 O2- 2 e 0.266(3) -0.030(6) -0.164(3) 0.004(6) 1. 0
O13 O2- 2 e 0.353(3) 0.468(7) 0.201(3) 0.012(7) 1. 0
O14 O2- 2 e 0.353(3) 0.966(6) 0.200(3) 0.008(7) 1. 0
O15 O2- 1 c 0.5 0.489(10) 0 0.013(11) 1. 0
O16 O2- 1 c 0.5 -0.008(9) 0 0.006(9) 1. 0
O17 O2- 2 e 0.554(2) 0.1912(6) 0.235(2) 0.015(6) 1. 0
O18 O2- 2 e 0.233(3) 0.655(7) 0.021(2) 0.021(7) 1. 0
loop_
_atom_site_aniso_label
_atom_site_aniso_type_symbol
_atom_site_aniso_U_11
_atom_site_aniso_U_22
_atom_site_aniso_U_33
_atom_site_aniso_U_12
_atom_site_aniso_U_13
_atom_site_aniso_U_23
Bi1 Bi3+ 0.0173(9) 0.0110(9) 0.0101(7) -0.0035(7) 0.0065(6) 0.0019(7)
Bi2 Bi3+ 0.0163(9) 0.0132(9) 0.0095(7) 0.0049(7) 0.0068(6) 0.0080(7)
Bi3 Bi3+ 0.0175(8) 0.0135(8) 0.0160(7) -0.0019(10) 0.0083(6) -0.0003(1)
Bi4 Bi3+ 0.0225(8) 0.0126(8) 0.0086(6) 0.0006(11) 0.0068(6) 0.0036(10)
Bi5 Bi3+ 0.0144(7) 0.0109(8) 0.0063(6) -0.033(9) 0.0009(5) -0.001(9)
Bi6 Bi3+ 0.0178(8) 0.0146(10) 0.0170(8) -0.0009(1) 0.0056(6) 0.0043(10)
Bi7 Bi3+ 0.017(4) 0.037(4) 0.044(2) 0. 0.0180(18) 0.
#End of TTdata_241341-ICSD