
#(C) 2017 by FIZ Karlsruhe - Leibniz Institute for Information Infrastructure.  All rights reserved.
data_192802-ICSD
_database_code_ICSD 192802
_audit_creation_date 2015-02-01
_chemical_name_systematic 'Terbium iron bismuth (6/1/2)'
_chemical_formula_structural 'Tb6 Fe Bi2'
_chemical_formula_sum 'Bi2 Fe1 Tb6'
_exptl_crystal_density_diffrn 9.55
_cell_measurement_temperature 4.
_publ_section_title

;
Spin reorientation and magnetoelastic coupling in Tb6 Fe1-x Cox Bi2 (x = 0,
0.125, 0.25, and 0.375) alloy system
;
loop_
_citation_id
_citation_journal_full
_citation_year
_citation_journal_volume
_citation_page_first
_citation_page_last
_citation_journal_id_ASTM
primary 'Journal of Alloys and Compounds' 2014 615 514 520 JALCEU
loop_
_publ_author_name
'Koehler, M.R.'
'Garlea, V.O.'
'McGuire, M.A.'
'Jia, L.'
'Keppens, V.'
_cell_length_a 8.2316(6)
_cell_length_b 8.2853(4)
_cell_length_c 4.2110(2)
_cell_angle_alpha 90.
_cell_angle_beta 90.
_cell_angle_gamma 120.219(7)
_cell_volume 248.17
_cell_formula_units_Z 1
_symmetry_space_group_name_H-M 'P 1 1 m'
_symmetry_Int_Tables_number 6
_refine_ls_R_factor_all 0.0667
loop_
_symmetry_equiv_pos_site_id
_symmetry_equiv_pos_as_xyz
1 'x, y, -z'
2 'x, y, z'
loop_
_atom_type_symbol
_atom_type_oxidation_number
Tb0+ 0
Fe0+ 0
Bi0+ 0
loop_
_atom_site_label
_atom_site_type_symbol
_atom_site_symmetry_multiplicity
_atom_site_Wyckoff_symbol
_atom_site_fract_x
_atom_site_fract_y
_atom_site_fract_z
_atom_site_B_iso_or_equiv
_atom_site_occupancy
_atom_site_attached_hydrogens
Tb1 Tb0+ 1 a 0.242(8) 0.018(6) 0 . 1. 0
Tb2 Tb0+ 1 a 0.027(9) 0.245(6) 0 . 1. 0
Tb3 Tb0+ 1 a 0.781(7) 0.758(6) 0 . 1. 0
Tb4 Tb0+ 1 b 0.02(1) 0.603(7) 0.5 . 1. 0
Tb5 Tb0+ 1 b 0.637(8) 0.010(7) 0.5 . 1. 0
Tb6 Tb0+ 1 b 0.438(8) 0.426(6) 0.5 . 1. 0
Fe1 Fe0+ 1 b 0.016(9) 0.030(7) 0.5 . 1. 0
Bi1 Bi0+ 1 a 0.663(7) 0.335(7) 0 . 1. 0
Bi2 Bi0+ 1 a 0.34203 0.6654 0 . 1. 0
#End of TTdata_192802-ICSD