
#(C) 2017 by FIZ Karlsruhe - Leibniz Institute for Information Infrastructure.  All rights reserved.
data_281757-ICSD
_database_code_ICSD 281757
_audit_creation_date 2004-10-01
_audit_update_record 2008-08-01
_chemical_name_systematic 'Gallium selenide (4/8)'
_chemical_formula_structural 'Ga4 Se8'
_chemical_formula_sum 'Ga4 Se8'
_chemical_name_structure_type BeCl2
_chemical_name_mineral 'Zeolite UCR-20GaGeSe-TEPA'
_exptl_crystal_density_diffrn 1.73
_publ_section_title
'Microporous and photoluminescent chalcogenide zeolite analogs'
loop_
_citation_id
_citation_journal_full
_citation_year
_citation_journal_volume
_citation_page_first
_citation_page_last
_citation_journal_id_ASTM
primary Science 2002 298 2366 2369 SCIEAS
loop_
_publ_author_name
'Zheng Nanfeng'
'Bu Xianhui'
'Wang Bing'
'Feng Pingyun'
_cell_length_a 21.874(2)
_cell_length_b 21.874(2)
_cell_length_c 21.874(2)
_cell_angle_alpha 90.
_cell_angle_beta 90.
_cell_angle_gamma 90.
_cell_volume 10466.09
_cell_formula_units_Z 12
_symmetry_space_group_name_H-M 'I -4 3 m'
_symmetry_Int_Tables_number 217
_refine_ls_R_factor_all 0.0559
loop_
_symmetry_equiv_pos_site_id
_symmetry_equiv_pos_as_xyz
1 '-z, -y, x'
2 '-y, -x, z'
3 '-x, -z, y'
4 '-z, -x, y'
5 '-y, -z, x'
6 '-x, -y, z'
7 '-z, y, -x'
8 '-y, x, -z'
9 '-x, z, -y'
10 '-z, x, -y'
11 '-y, z, -x'
12 '-x, y, -z'
13 'z, -y, -x'
14 'y, -x, -z'
15 'x, -z, -y'
16 'z, -x, -y'
17 'y, -z, -x'
18 'x, -y, -z'
19 'z, y, x'
20 'y, x, z'
21 'x, z, y'
22 'z, x, y'
23 'y, z, x'
24 'x, y, z'
25 '-z+1/2, -y+1/2, x+1/2'
26 '-y+1/2, -x+1/2, z+1/2'
27 '-x+1/2, -z+1/2, y+1/2'
28 '-z+1/2, -x+1/2, y+1/2'
29 '-y+1/2, -z+1/2, x+1/2'
30 '-x+1/2, -y+1/2, z+1/2'
31 '-z+1/2, y+1/2, -x+1/2'
32 '-y+1/2, x+1/2, -z+1/2'
33 '-x+1/2, z+1/2, -y+1/2'
34 '-z+1/2, x+1/2, -y+1/2'
35 '-y+1/2, z+1/2, -x+1/2'
36 '-x+1/2, y+1/2, -z+1/2'
37 'z+1/2, -y+1/2, -x+1/2'
38 'y+1/2, -x+1/2, -z+1/2'
39 'x+1/2, -z+1/2, -y+1/2'
40 'z+1/2, -x+1/2, -y+1/2'
41 'y+1/2, -z+1/2, -x+1/2'
42 'x+1/2, -y+1/2, -z+1/2'
43 'z+1/2, y+1/2, x+1/2'
44 'y+1/2, x+1/2, z+1/2'
45 'x+1/2, z+1/2, y+1/2'
46 'z+1/2, x+1/2, y+1/2'
47 'y+1/2, z+1/2, x+1/2'
48 'x+1/2, y+1/2, z+1/2'
loop_
_atom_type_symbol
_atom_type_oxidation_number
Ga3+ 3
Se1- -1.5
loop_
_atom_site_label
_atom_site_type_symbol
_atom_site_symmetry_multiplicity
_atom_site_Wyckoff_symbol
_atom_site_fract_x
_atom_site_fract_y
_atom_site_fract_z
_atom_site_B_iso_or_equiv
_atom_site_occupancy
_atom_site_attached_hydrogens
Ga1 Ga3+ 48 h 0.06576(7) 0.18996(7) 0.44684(8) 0.0420(6) 1. 0
Se1 Se1- 24 g 0.13137(8) 0.13137(8) 0.38184(10) 0.0465(7) 1. 0
Se2 Se1- 48 h 0.01244(9) 0.24894(8) 0.37198(8) 0.0526(6) 1. 0
Se3 Se1- 24 f 0 0.12134(11) 0.5 0.0522(7) 1. 0
loop_
_atom_site_aniso_label
_atom_site_aniso_type_symbol
_atom_site_aniso_U_11
_atom_site_aniso_U_22
_atom_site_aniso_U_33
_atom_site_aniso_U_12
_atom_site_aniso_U_13
_atom_site_aniso_U_23
Ga1 Ga3+ 0.0422(11) 0.0391(10) 0.0446(10) 0.0051(8) 0.0049(7) -.0011(8)
Se1 Se1- 0.0511(10) 0.0511(10) 0.0372(13) 0.0147(11) 0.0019(8) 0.0019(8)
Se2 Se1- 0.0599(12) 0.0538(11) 0.0443(10) 0.0094(9) -.0001(8) 0.0044(8)
Se3 Se1- 0.0563(15) 0.0398(13) 0.0603(16) 0 0.0115(12) 0
#End of TTdata_281757-ICSD