
#(C) 2018 by FIZ Karlsruhe - Leibniz Institute for Information Infrastructure.  All rights reserved.
data_27815-ICSD
_database_code_ICSD 27815
_audit_creation_date 1980-01-01
_audit_update_record 2015-02-01
_chemical_name_systematic

;
Sodium calcium strontium manganese magnesium cerium lanthanum neodymium
yttrium uranium thorium tellurium niobium tantalum titanium zirconium iron
oxide hydroxide fluoride *
;
_chemical_formula_structural

;
(Na2.35 Ca11.01 Sr0.14 Mn0.032 Mg0.11 Ce1.36 La0.27 Nd0.34 Y0.016 U0.064
Th0.13 Te0.016) (Nb11.62 Ta0.3 Ti2.85 Zr0.24 Fe0.75) O49.25 (O H)0.41 F6.34
;
_chemical_formula_sum

;
H0.41 Ca11.01 Ce1.36 F6.34 Fe0.75 La0.27 Mg0.11 Mn0.032 Na2.35 Nb11.62 Nd0.34
O49.66 Sr0.14 Ta0.3 Te0.016 Th0.13 Ti2.85 U0.064 Y0.016 Zr0.24
;
_chemical_name_structure_type Pyrochlore-NaCa(Nb2O6)F
_chemical_name_mineral Pyrochlore
_exptl_crystal_density_diffrn 4.52
_publ_section_title
'La composition chimique et la structure cristalline du pyrochlore d'Oka, P.Q.'
loop_
_citation_id
_citation_journal_full
_citation_year
_citation_journal_volume
_citation_page_first
_citation_page_last
_citation_journal_id_ASTM
primary 'Canadian Mineralogist' 1968 9 383 402 CAMIA6
loop_
_publ_author_name
'Perrault, G.'
_cell_length_a 10.43
_cell_length_b 10.43
_cell_length_c 10.43
_cell_angle_alpha 90.
_cell_angle_beta 90.
_cell_angle_gamma 90.
_cell_volume 1134.63
_cell_formula_units_Z 1
_symmetry_space_group_name_H-M 'F d -3 m S'
_symmetry_Int_Tables_number 227
_refine_ls_R_factor_all 0.123
loop_
_symmetry_equiv_pos_site_id
_symmetry_equiv_pos_as_xyz
1 'z+1/4, y+1/4, -x+1/4'
2 'y+1/4, x+1/4, -z+1/4'
3 'x+1/4, z+1/4, -y+1/4'
4 'z+1/4, x+1/4, -y+1/4'
5 'y+1/4, z+1/4, -x+1/4'
6 'x+1/4, y+1/4, -z+1/4'
7 'z+1/4, -y+1/4, x+1/4'
8 'y+1/4, -x+1/4, z+1/4'
9 'x+1/4, -z+1/4, y+1/4'
10 'z+1/4, -x+1/4, y+1/4'
11 'y+1/4, -z+1/4, x+1/4'
12 'x+1/4, -y+1/4, z+1/4'
13 '-z+1/4, y+1/4, x+1/4'
14 '-y+1/4, x+1/4, z+1/4'
15 '-x+1/4, z+1/4, y+1/4'
16 '-z+1/4, x+1/4, y+1/4'
17 '-y+1/4, z+1/4, x+1/4'
18 '-x+1/4, y+1/4, z+1/4'
19 '-z+1/4, -y+1/4, -x+1/4'
20 '-y+1/4, -x+1/4, -z+1/4'
21 '-x+1/4, -z+1/4, -y+1/4'
22 '-z+1/4, -x+1/4, -y+1/4'
23 '-y+1/4, -z+1/4, -x+1/4'
24 '-x+1/4, -y+1/4, -z+1/4'
25 '-z, -y, x'
26 '-y, -x, z'
27 '-x, -z, y'
28 '-z, -x, y'
29 '-y, -z, x'
30 '-x, -y, z'
31 '-z, y, -x'
32 '-y, x, -z'
33 '-x, z, -y'
34 '-z, x, -y'
35 '-y, z, -x'
36 '-x, y, -z'
37 'z, -y, -x'
38 'y, -x, -z'
39 'x, -z, -y'
40 'z, -x, -y'
41 'y, -z, -x'
42 'x, -y, -z'
43 'z, y, x'
44 'y, x, z'
45 'x, z, y'
46 'z, x, y'
47 'y, z, x'
48 'x, y, z'
49 'z+1/4, y+3/4, -x+3/4'
50 'y+1/4, x+3/4, -z+3/4'
51 'x+1/4, z+3/4, -y+3/4'
52 'z+1/4, x+3/4, -y+3/4'
53 'y+1/4, z+3/4, -x+3/4'
54 'x+1/4, y+3/4, -z+3/4'
55 'z+1/4, -y+3/4, x+3/4'
56 'y+1/4, -x+3/4, z+3/4'
57 'x+1/4, -z+3/4, y+3/4'
58 'z+1/4, -x+3/4, y+3/4'
59 'y+1/4, -z+3/4, x+3/4'
60 'x+1/4, -y+3/4, z+3/4'
61 '-z+1/4, y+3/4, x+3/4'
62 '-y+1/4, x+3/4, z+3/4'
63 '-x+1/4, z+3/4, y+3/4'
64 '-z+1/4, x+3/4, y+3/4'
65 '-y+1/4, z+3/4, x+3/4'
66 '-x+1/4, y+3/4, z+3/4'
67 '-z+1/4, -y+3/4, -x+3/4'
68 '-y+1/4, -x+3/4, -z+3/4'
69 '-x+1/4, -z+3/4, -y+3/4'
70 '-z+1/4, -x+3/4, -y+3/4'
71 '-y+1/4, -z+3/4, -x+3/4'
72 '-x+1/4, -y+3/4, -z+3/4'
73 '-z, -y+1/2, x+1/2'
74 '-y, -x+1/2, z+1/2'
75 '-x, -z+1/2, y+1/2'
76 '-z, -x+1/2, y+1/2'
77 '-y, -z+1/2, x+1/2'
78 '-x, -y+1/2, z+1/2'
79 '-z, y+1/2, -x+1/2'
80 '-y, x+1/2, -z+1/2'
81 '-x, z+1/2, -y+1/2'
82 '-z, x+1/2, -y+1/2'
83 '-y, z+1/2, -x+1/2'
84 '-x, y+1/2, -z+1/2'
85 'z, -y+1/2, -x+1/2'
86 'y, -x+1/2, -z+1/2'
87 'x, -z+1/2, -y+1/2'
88 'z, -x+1/2, -y+1/2'
89 'y, -z+1/2, -x+1/2'
90 'x, -y+1/2, -z+1/2'
91 'z, y+1/2, x+1/2'
92 'y, x+1/2, z+1/2'
93 'x, z+1/2, y+1/2'
94 'z, x+1/2, y+1/2'
95 'y, z+1/2, x+1/2'
96 'x, y+1/2, z+1/2'
97 'z+3/4, y+1/4, -x+3/4'
98 'y+3/4, x+1/4, -z+3/4'
99 'x+3/4, z+1/4, -y+3/4'
100 'z+3/4, x+1/4, -y+3/4'
101 'y+3/4, z+1/4, -x+3/4'
102 'x+3/4, y+1/4, -z+3/4'
103 'z+3/4, -y+1/4, x+3/4'
104 'y+3/4, -x+1/4, z+3/4'
105 'x+3/4, -z+1/4, y+3/4'
106 'z+3/4, -x+1/4, y+3/4'
107 'y+3/4, -z+1/4, x+3/4'
108 'x+3/4, -y+1/4, z+3/4'
109 '-z+3/4, y+1/4, x+3/4'
110 '-y+3/4, x+1/4, z+3/4'
111 '-x+3/4, z+1/4, y+3/4'
112 '-z+3/4, x+1/4, y+3/4'
113 '-y+3/4, z+1/4, x+3/4'
114 '-x+3/4, y+1/4, z+3/4'
115 '-z+3/4, -y+1/4, -x+3/4'
116 '-y+3/4, -x+1/4, -z+3/4'
117 '-x+3/4, -z+1/4, -y+3/4'
118 '-z+3/4, -x+1/4, -y+3/4'
119 '-y+3/4, -z+1/4, -x+3/4'
120 '-x+3/4, -y+1/4, -z+3/4'
121 '-z+1/2, -y, x+1/2'
122 '-y+1/2, -x, z+1/2'
123 '-x+1/2, -z, y+1/2'
124 '-z+1/2, -x, y+1/2'
125 '-y+1/2, -z, x+1/2'
126 '-x+1/2, -y, z+1/2'
127 '-z+1/2, y, -x+1/2'
128 '-y+1/2, x, -z+1/2'
129 '-x+1/2, z, -y+1/2'
130 '-z+1/2, x, -y+1/2'
131 '-y+1/2, z, -x+1/2'
132 '-x+1/2, y, -z+1/2'
133 'z+1/2, -y, -x+1/2'
134 'y+1/2, -x, -z+1/2'
135 'x+1/2, -z, -y+1/2'
136 'z+1/2, -x, -y+1/2'
137 'y+1/2, -z, -x+1/2'
138 'x+1/2, -y, -z+1/2'
139 'z+1/2, y, x+1/2'
140 'y+1/2, x, z+1/2'
141 'x+1/2, z, y+1/2'
142 'z+1/2, x, y+1/2'
143 'y+1/2, z, x+1/2'
144 'x+1/2, y, z+1/2'
145 'z+3/4, y+3/4, -x+1/4'
146 'y+3/4, x+3/4, -z+1/4'
147 'x+3/4, z+3/4, -y+1/4'
148 'z+3/4, x+3/4, -y+1/4'
149 'y+3/4, z+3/4, -x+1/4'
150 'x+3/4, y+3/4, -z+1/4'
151 'z+3/4, -y+3/4, x+1/4'
152 'y+3/4, -x+3/4, z+1/4'
153 'x+3/4, -z+3/4, y+1/4'
154 'z+3/4, -x+3/4, y+1/4'
155 'y+3/4, -z+3/4, x+1/4'
156 'x+3/4, -y+3/4, z+1/4'
157 '-z+3/4, y+3/4, x+1/4'
158 '-y+3/4, x+3/4, z+1/4'
159 '-x+3/4, z+3/4, y+1/4'
160 '-z+3/4, x+3/4, y+1/4'
161 '-y+3/4, z+3/4, x+1/4'
162 '-x+3/4, y+3/4, z+1/4'
163 '-z+3/4, -y+3/4, -x+1/4'
164 '-y+3/4, -x+3/4, -z+1/4'
165 '-x+3/4, -z+3/4, -y+1/4'
166 '-z+3/4, -x+3/4, -y+1/4'
167 '-y+3/4, -z+3/4, -x+1/4'
168 '-x+3/4, -y+3/4, -z+1/4'
169 '-z+1/2, -y+1/2, x'
170 '-y+1/2, -x+1/2, z'
171 '-x+1/2, -z+1/2, y'
172 '-z+1/2, -x+1/2, y'
173 '-y+1/2, -z+1/2, x'
174 '-x+1/2, -y+1/2, z'
175 '-z+1/2, y+1/2, -x'
176 '-y+1/2, x+1/2, -z'
177 '-x+1/2, z+1/2, -y'
178 '-z+1/2, x+1/2, -y'
179 '-y+1/2, z+1/2, -x'
180 '-x+1/2, y+1/2, -z'
181 'z+1/2, -y+1/2, -x'
182 'y+1/2, -x+1/2, -z'
183 'x+1/2, -z+1/2, -y'
184 'z+1/2, -x+1/2, -y'
185 'y+1/2, -z+1/2, -x'
186 'x+1/2, -y+1/2, -z'
187 'z+1/2, y+1/2, x'
188 'y+1/2, x+1/2, z'
189 'x+1/2, z+1/2, y'
190 'z+1/2, x+1/2, y'
191 'y+1/2, z+1/2, x'
192 'x+1/2, y+1/2, z'
loop_
_atom_type_symbol
_atom_type_oxidation_number
Na1+ 1
Ca2+ 2
Sr2+ 2
Mn2+ 2
Mg2+ 2
Ce3+ 3
La3+ 3
Nd3+ 3
Y3+ 3
U4+ 4
Th4+ 4
Te4+ 4
Nb5+ 5
Ta5+ 5
Ti4+ 4
Zr4+ 4
Fe3+ 3
F1- -1
O2- -2
H1+ 1
loop_
_atom_site_label
_atom_site_type_symbol
_atom_site_symmetry_multiplicity
_atom_site_Wyckoff_symbol
_atom_site_fract_x
_atom_site_fract_y
_atom_site_fract_z
_atom_site_B_iso_or_equiv
_atom_site_occupancy
_atom_site_attached_hydrogens
Na1 Na1+ 16 c 0.125 0.125 0.125 1.59 0.147 0
Ca1 Ca2+ 16 c 0.125 0.125 0.125 1.59 0.688 0
Sr1 Sr2+ 16 c 0.125 0.125 0.125 1.59 0.009 0
Mn1 Mn2+ 16 c 0.125 0.125 0.125 1.59 0.002 0
Mg1 Mg2+ 16 c 0.125 0.125 0.125 1.59 0.007 0
Ce1 Ce3+ 16 c 0.125 0.125 0.125 1.59 0.085 0
La1 La3+ 16 c 0.125 0.125 0.125 1.59 0.017 0
Nd1 Nd3+ 16 c 0.125 0.125 0.125 1.59 0.021 0
Y1 Y3+ 16 c 0.125 0.125 0.125 1.59 0.001 0
U1 U4+ 16 c 0.125 0.125 0.125 1.59 0.004 0
Th1 Th4+ 16 c 0.125 0.125 0.125 1.59 0.008 0
Te1 Te4+ 16 c 0.125 0.125 0.125 1.59 0.001 0
Nb1 Nb5+ 16 d 0.625 0.625 0.625 1.59 0.726 0
Ta1 Ta5+ 16 d 0.625 0.625 0.625 1.59 0.019 0
Ti1 Ti4+ 16 d 0.625 0.625 0.625 1.59 0.178 0
Zr1 Zr4+ 16 d 0.625 0.625 0.625 1.59 0.015 0
Fe1 Fe3+ 16 d 0.625 0.625 0.625 1.59 0.047 0
F1 F1- 8 a 0 0 0 1.59 0.793 0
O1 O2- 8 a 0 0 0 1.59 0.207 0
O2 O2- 48 f 0.316 0 0 1.59 1. 0
#End of TTdata_27815-ICSD