
#(C) 2018 by FIZ Karlsruhe - Leibniz Institute for Information Infrastructure.  All rights reserved.
data_194399-ICSD
_database_code_ICSD 194399
_audit_creation_date 2015-08-01
_chemical_name_systematic 'Silver octaoxo-triiodate(V)'
_chemical_formula_structural 'Ag (I3 O8)'
_chemical_formula_sum 'Ag1 I3 O8'
_exptl_crystal_density_diffrn 5.29
_cell_measurement_temperature 293.
_publ_section_title

;
alpha - Ag I3 O8 and beta - Ag I3 O8 with large SHG responses: polymerization
of I O3 groups into the I3 O8 polyiodate anion
;
loop_
_citation_id
_citation_journal_full
_citation_year
_citation_journal_volume
_citation_page_first
_citation_page_last
_citation_journal_id_ASTM
primary 'Chemistry of Materials' 2014 26 3219 3230 CMATEX
loop_
_publ_author_name
'Xu, Xiang'
'Hu, Chun-Li'
'Li, Bing-Xuan'
'Yang, Bing-Ping'
'Mao, Jiang-Gao'
_cell_length_a 8.1443(3)
_cell_length_b 8.1171(3)
_cell_length_c 11.7005(5)
_cell_angle_alpha 90.
_cell_angle_beta 90.
_cell_angle_gamma 90.
_cell_volume 773.49
_cell_formula_units_Z 4
_symmetry_space_group_name_H-M 'P n c 2'
_symmetry_Int_Tables_number 30
_refine_ls_R_factor_all 0.0206
loop_
_symmetry_equiv_pos_site_id
_symmetry_equiv_pos_as_xyz
1 'x, -y+1/2, z+1/2'
2 '-x, y+1/2, z+1/2'
3 '-x, -y, z'
4 'x, y, z'
loop_
_atom_type_symbol
_atom_type_oxidation_number
Ag1+ 1
I5+ 5
O2- -2
loop_
_atom_site_label
_atom_site_type_symbol
_atom_site_symmetry_multiplicity
_atom_site_Wyckoff_symbol
_atom_site_fract_x
_atom_site_fract_y
_atom_site_fract_z
_atom_site_B_iso_or_equiv
_atom_site_occupancy
_atom_site_attached_hydrogens
Ag1 Ag1+ 2 a 0. 1. 0.46768(10) 0.0246(2) 1 0
Ag2 Ag1+ 2 b 0.5 0. 0.49629(11) 0.0288(3) 1 0
I1 I5+ 4 c 0.75230(4) 0.22251(5) 0.67431(5) 0.01524(11) 1 0
I2 I5+ 2 a 1. 0.5 0.54430(7) 0.01297(15) 1 0
I3 I5+ 4 c 0.22978(4) 0.24572(5) 0.29139(5) 0.01496(11) 1 0
I4 I5+ 2 b 0.5 0.5 0.42482(7) 0.01326(15) 1 0
O1 O2- 4 c 0.5740(6) 0.2628(6) 0.5895(4) 0.0256(10) 1 0
O2 O2- 4 c 0.7692(6) 0.0057(5) 0.6492(5) 0.0255(11) 1 0
O3 O2- 4 c 0.9136(5) 0.2630(5) 0.5576(4) 0.0222(10) 1 0
O4 O2- 4 c 0.8346(5) 0.5485(5) 0.6408(4) 0.0221(10) 1 0
O5 O2- 4 c 0.2687(6) 0.0673(6) 0.3766(4) 0.0275(11) 1 0
O6 O2- 4 c 0.0134(5) 0.2623(6) 0.3140(4) 0.0238(10) 1 0
O7 O2- 4 c 0.2673(6) 0.4080(7) 0.4087(4) 0.0236(12) 1 0
O8 O2- 4 c 0.5550(6) 0.3349(5) 0.3293(4) 0.0252(10) 1 0
loop_
_atom_site_aniso_label
_atom_site_aniso_type_symbol
_atom_site_aniso_U_11
_atom_site_aniso_U_22
_atom_site_aniso_U_33
_atom_site_aniso_U_12
_atom_site_aniso_U_13
_atom_site_aniso_U_23
Ag1 Ag1+ 0.0259(5) 0.0206(5) 0.0275(6) -0.0013(3) 0. 0.
Ag2 Ag1+ 0.0215(5) 0.0332(6) 0.0318(7) -0.0025(3) 0. 0.
I1 I5+ 0.01412(19) 0.01554(17) 0.0161(2) -0.00181(13) -0.00102(15) 0.00231(18)
I2 I5+ 0.0115(3) 0.0150(3) 0.0123(4) -0.00033(16) 0. 0.
I3 I5+ 0.01329(18) 0.01587(18) 0.0157(2) -0.00182(15) -0.0003(2) 0.00079(15)
I4 I5+ 0.0124(3) 0.0153(3) 0.0121(3) 0.0004(2) 0. 0.
O1 O2- 0.016(2) 0.032(3) 0.029(3) -0.002(2) -0.006(2) 0.009(2)
O2 O2- 0.033(3) 0.014(2) 0.030(3) -0.0039(17) 0.007(2) 0.0031(19)
O3 O2- 0.028(2) 0.017(2) 0.022(2) -0.0072(19) 0.007(2) -0.0009(17)
O4 O2- 0.019(2) 0.024(2) 0.023(2) -0.0042(18) 0.0085(19) -0.0041(17)
O5 O2- 0.032(3) 0.021(3) 0.029(3) -0.003(2) -0.008(2) 0.012(2)
O6 O2- 0.012(2) 0.035(3) 0.025(3) -0.0009(19) -0.0008(18) -0.001(2)
O7 O2- 0.015(3) 0.029(3) 0.026(3) -0.003(2) -0.0006(18) -0.012(2)
O8 O2- 0.027(3) 0.018(2) 0.030(2) -0.002(2) 0.009(2) -0.0093(18)
#End of TTdata_194399-ICSD