
#(C) 2018 by FIZ Karlsruhe - Leibniz Institute for Information Infrastructure.  All rights reserved.
data_239762-ICSD
_database_code_ICSD 239762
_audit_creation_date 2016-08-01
_chemical_name_systematic 'Lithium yttrium tetrakis(tetrahydridoborate)'
_chemical_formula_structural 'Li Y (B H4)4'
_chemical_formula_sum 'H16 B4 Li1 Y1'
_exptl_crystal_density_diffrn 1.06
_publ_section_title

;
Solid state synthesis, structural characterization and ionic conductivity of
bimetallic alkali-metal yttrium borohydrides MY(BH4)4 (M = Li and Na)
;
loop_
_citation_id
_citation_journal_full
_citation_year
_citation_journal_volume
_citation_page_first
_citation_page_last
_citation_journal_id_ASTM
primary
'Journal of Materials Chemistry A: Materials for Energy and Sustainability' 2016 4 8793 8802 JMCAET
loop_
_publ_author_name
'Roedern, Elsa'
'Lee, Young-Su'
'Ley, Morten B.'
'Park, Kiho'
'Cho, Young Whan'
'Skibsted, Joergen'
'Jensen, Torben R.'
_cell_length_a 6.2360(9)
_cell_length_b 6.2360(9)
_cell_length_c 12.491(3)
_cell_angle_alpha 90.
_cell_angle_beta 90.
_cell_angle_gamma 90.
_cell_volume 485.74
_cell_formula_units_Z 2
_symmetry_space_group_name_H-M 'P -4 2 c'
_symmetry_Int_Tables_number 112
_refine_ls_R_factor_all 0.0204
loop_
_symmetry_equiv_pos_site_id
_symmetry_equiv_pos_as_xyz
1 'y, x, z+1/2'
2 '-y, -x, z+1/2'
3 'y, -x, -z'
4 '-y, x, -z'
5 'x, -y, -z+1/2'
6 '-x, y, -z+1/2'
7 '-x, -y, z'
8 'x, y, z'
loop_
_atom_type_symbol
_atom_type_oxidation_number
B3+ 3
H1- -1
Li1+ 1
Y3+ 3
loop_
_atom_site_label
_atom_site_type_symbol
_atom_site_symmetry_multiplicity
_atom_site_Wyckoff_symbol
_atom_site_fract_x
_atom_site_fract_y
_atom_site_fract_z
_atom_site_B_iso_or_equiv
_atom_site_occupancy
_atom_site_attached_hydrogens
B1 B3+ 8 n 0.7453 0.7453 0.6535 0.038 1. 0
H1 H1- 8 n 0.7642 0.7596 0.7527 0.10132 1. 0
H2 H1- 8 n 0.8643 0.8647 0.6063 0.10132 1. 0
H3 H1- 8 n 0.5562 0.7854 0.6331 0.10132 1. 0
H4 H1- 8 n 0.7818 0.5566 0.6307 0.10132 1. 0
Li1 Li1+ 2 a 0. 0. 0.25 0.038 1. 0
Y1 Y3+ 2 c 0.5 0.5 0.25 0.01267 1. 0
#End of TTdata_239762-ICSD