
#(C) 2017 by FIZ Karlsruhe - Leibniz Institute for Information Infrastructure.  All rights reserved.
data_247095-ICSD
_database_code_ICSD 247095
_audit_creation_date 2010-08-01
_chemical_name_systematic 'Dihydrogen oxide - Ih'
_chemical_formula_structural 'H2 O'
_chemical_formula_sum 'H2 O1'
_chemical_name_structure_type H2O(Ib)
_chemical_name_mineral 'Ice Ih'
_exptl_crystal_density_diffrn 0.93
_cell_measurement_temperature 100.
_publ_section_title

;
No evidence for large-scale proton ordering in Antarctic ice from powder
neutron diffraction
;
loop_
_citation_id
_citation_journal_full
_citation_year
_citation_journal_volume
_citation_page_first
_citation_page_last
_citation_journal_id_ASTM
primary 'Journal of Chemical Physics' 2004 120 11376 11379 JCPSA6
loop_
_publ_author_name
'Fortes, A.D.'
'Wood, I.G.'
'Grigoriev, D.'
'Alfredsson, M.'
'Kipfstuhl, S.'
'Knight, K.S.'
'Smith, R.I.'
_cell_length_a 4.497479(68)
_cell_length_b 4.497479(68)
_cell_length_c 7.322382(206)
_cell_angle_alpha 90.
_cell_angle_beta 90.
_cell_angle_gamma 120.
_cell_volume 128.27
_cell_formula_units_Z 4
_symmetry_space_group_name_H-M 'P 63/m m c'
_symmetry_Int_Tables_number 194
_refine_ls_R_factor_all 0.0043
loop_
_symmetry_equiv_pos_site_id
_symmetry_equiv_pos_as_xyz
1 'x, x-y, -z+1/2'
2 '-x+y, y, -z+1/2'
3 '-y, -x, -z+1/2'
4 '-x+y, -x, -z+1/2'
5 '-y, x-y, -z+1/2'
6 'x, y, -z+1/2'
7 '-x, -x+y, z+1/2'
8 'x-y, -y, z+1/2'
9 'y, x, z+1/2'
10 'x-y, x, z+1/2'
11 'y, -x+y, z+1/2'
12 '-x, -y, z+1/2'
13 '-x, -x+y, -z'
14 'x-y, -y, -z'
15 'y, x, -z'
16 'x-y, x, -z'
17 'y, -x+y, -z'
18 '-x, -y, -z'
19 'x, x-y, z'
20 '-x+y, y, z'
21 '-y, -x, z'
22 '-x+y, -x, z'
23 '-y, x-y, z'
24 'x, y, z'
loop_
_atom_type_symbol
_atom_type_oxidation_number
O2- -2
H1+ 1
loop_
_atom_site_label
_atom_site_type_symbol
_atom_site_symmetry_multiplicity
_atom_site_Wyckoff_symbol
_atom_site_fract_x
_atom_site_fract_y
_atom_site_fract_z
_atom_site_B_iso_or_equiv
_atom_site_occupancy
_atom_site_attached_hydrogens
O1 O2- 4 f 0.3333 0.6667 0.0614(2) . 1. 0
H1 H1+ 4 f 0.3333 0.6667 0.1964(4) . 0.5 0
H2 H1+ 12 k 0.4510(2) 0.9019(4) 0.0179(3) . 0.5 0
loop_
_atom_site_aniso_label
_atom_site_aniso_type_symbol
_atom_site_aniso_U_11
_atom_site_aniso_U_22
_atom_site_aniso_U_33
_atom_site_aniso_U_12
_atom_site_aniso_U_13
_atom_site_aniso_U_23
O1 O2- 0.0079(3) 0.0079(3) 0.0060(5) 0.0040(2) 0. 0.
H1 H1+ 0.0211(12) 0.0211(12) 0.0082(21) 0.0106(6) 0. 0.
H2 H1+ 0.0169(7) 0.0124(13) 0.0174(12) 0.0062(6) 0.0037(5) 0.0075(10)
#End of TTdata_247095-ICSD