
#(C) 2017 by FIZ Karlsruhe - Leibniz Institute for Information Infrastructure.  All rights reserved.
data_93900-ICSD
_database_code_ICSD 93900
_audit_creation_date 2003-04-01
_chemical_name_systematic 'Nickel antimonide sulfide (1/1/1)'
_chemical_formula_structural 'Ni Sb S'
_chemical_formula_sum 'Ni1 S1 Sb1'
_chemical_name_structure_type NiSSb
_exptl_crystal_density_diffrn 6.76
_publ_section_title

;
The atomic order of the pnictogen and chalcogen atoms in equiatomic ternary
compounds T Pn Ch (T = Ni, Pd; Pn = P, As, Sb; Ch= S, Se, Te)
;
loop_
_citation_id
_citation_journal_full
_citation_year
_citation_journal_volume
_citation_page_first
_citation_page_last
_citation_journal_id_ASTM
primary 'Journal of Solid State Chemistry' 2001 162 69 78 JSSCBI
loop_
_publ_author_name
'Foecker, A.J.'
'Jeitschko, W.'
_cell_length_a 5.9341(7)
_cell_length_b 5.9341(7)
_cell_length_c 5.9341(7)
_cell_angle_alpha 90
_cell_angle_beta 90
_cell_angle_gamma 90
_cell_volume 208.96
_cell_formula_units_Z 4
_symmetry_space_group_name_H-M 'P 21 3'
_symmetry_Int_Tables_number 198
_refine_ls_R_factor_all 0.009
loop_
_symmetry_equiv_pos_site_id
_symmetry_equiv_pos_as_xyz
1 '-z+1/2, -x, y+1/2'
2 '-y+1/2, -z, x+1/2'
3 '-x+1/2, -y, z+1/2'
4 '-z, x+1/2, -y+1/2'
5 '-y, z+1/2, -x+1/2'
6 '-x, y+1/2, -z+1/2'
7 'z+1/2, -x+1/2, -y'
8 'y+1/2, -z+1/2, -x'
9 'x+1/2, -y+1/2, -z'
10 'z, x, y'
11 'y, z, x'
12 'x, y, z'
loop_
_atom_type_symbol
_atom_type_oxidation_number
Ni3+ 3
Sb1- -1.5
S1- -1.5
loop_
_atom_site_label
_atom_site_type_symbol
_atom_site_symmetry_multiplicity
_atom_site_Wyckoff_symbol
_atom_site_fract_x
_atom_site_fract_y
_atom_site_fract_z
_atom_site_B_iso_or_equiv
_atom_site_occupancy
_atom_site_attached_hydrogens
Ni1 Ni3+ 4 a 0.98123(4) 0.98123(4) 0.98123(4) 0.00655(8) 1. 0
Sb1 Sb1- 4 a 0.62674(2) 0.62674(2) 0.62674(2) 0.00652(6) 1. 0
S1 S1- 4 a 0.38118(7) 0.38118(7) 0.38118(7) 0.0070(1) 1. 0
loop_
_atom_site_aniso_label
_atom_site_aniso_type_symbol
_atom_site_aniso_U_11
_atom_site_aniso_U_22
_atom_site_aniso_U_33
_atom_site_aniso_U_12
_atom_site_aniso_U_13
_atom_site_aniso_U_23
Ni1 Ni3+ 0.00655(8) 0.00655(8) 0.00655(8) 0.00002(7) 0.00002(7) 0.00002(7)
Sb1 Sb1- 0.00652(6) 0.00652(6) 0.00652(6) 0.00035(4) 0.00035(4) 0.00035(4)
S1 S1- 0.0070(1) 0.0070(1) 0.0070(1) -0.0001(1) -0.0001(1) -0.0001(1)
#End of TTdata_93900-ICSD