
#(C) 2017 by FIZ Karlsruhe - Leibniz Institute for Information Infrastructure.  All rights reserved.
data_24347-ICSD
_database_code_ICSD 24347
_audit_creation_date 1980-01-01
_audit_update_record 2004-04-01
_chemical_name_systematic 'Palladium sulfide (3/1) - HT'
_chemical_formula_structural 'Pd3 S'
_chemical_formula_sum 'Pd3 S1'
_exptl_crystal_density_diffrn 9.57
_publ_section_title 'The crystal structure of the high temperature phase Pd3 S'
loop_
_citation_id
_citation_journal_full
_citation_year
_citation_journal_volume
_citation_page_first
_citation_page_last
_citation_journal_id_ASTM
primary 'Acta Chemica Scandinavica (1-27,1973-42,1988)' 1968 22 819 826 ACSAA4
loop_
_publ_author_name
'Rost, E.'
'Vestersjoe, E.'
_cell_length_a 6.088(1)
_cell_length_b 5.374(1)
_cell_length_c 7.453(1)
_cell_angle_alpha 90.
_cell_angle_beta 90.
_cell_angle_gamma 90.
_cell_volume 243.84
_cell_formula_units_Z 4
_symmetry_space_group_name_H-M 'A m a 2'
_symmetry_Int_Tables_number 40
_refine_ls_R_factor_all 0.0595
loop_
_symmetry_equiv_pos_site_id
_symmetry_equiv_pos_as_xyz
1 'x+1/2, -y, z'
2 '-x+1/2, y, z'
3 '-x, -y, z'
4 'x, y, z'
5 'x+1/2, -y+1/2, z+1/2'
6 '-x+1/2, y+1/2, z+1/2'
7 '-x, -y+1/2, z+1/2'
8 'x, y+1/2, z+1/2'
loop_
_atom_type_symbol
_atom_type_oxidation_number
Pd0+ 0
S0+ 0
loop_
_atom_site_label
_atom_site_type_symbol
_atom_site_symmetry_multiplicity
_atom_site_Wyckoff_symbol
_atom_site_fract_x
_atom_site_fract_y
_atom_site_fract_z
_atom_site_B_iso_or_equiv
_atom_site_occupancy
_atom_site_attached_hydrogens
Pd1 Pd0+ 4 a 0 0 0 0.49 1. 0
Pd2 Pd0+ 4 b 0.25 0.3533(10) 0.1933(6) 0.87 1. 0
Pd3 Pd0+ 4 b 0.25 0.8428(10) 0.3013(5) 0.45 1. 0
S1 S0+ 4 b 0.25 0.6829(15) -.0001(19) 0.58 1. 0
#End of TTdata_24347-ICSD