
#(C) 2017 by FIZ Karlsruhe - Leibniz Institute for Information Infrastructure.  All rights reserved.
data_38274-ICSD
_database_code_ICSD 38274
_audit_creation_date 1983-12-31
_audit_update_record 2013-08-01
_chemical_name_systematic 'Rhenium silicide (1/2)'
_chemical_formula_structural 'Re Si2'
_chemical_formula_sum 'Re1 Si2'
_chemical_name_structure_type ReSi2
_exptl_crystal_density_diffrn 10.66
_publ_section_title 'The crystal structure and some properties of Re Si2'
loop_
_citation_id
_citation_journal_full
_citation_year
_citation_journal_volume
_citation_page_first
_citation_page_last
_citation_journal_id_ASTM
primary 'Journal of the Less-Common Metals' 1983 92 119 129 JCOMAH
loop_
_publ_author_name
'Siegrist, T.'
'Hulliger, F.'
'Travaglini, G.'
_cell_length_a 3.128(1)
_cell_length_b 3.144(1)
_cell_length_c 7.677(2)
_cell_angle_alpha 90.
_cell_angle_beta 90.
_cell_angle_gamma 90.
_cell_volume 75.5
_cell_formula_units_Z 2
_symmetry_space_group_name_H-M 'I m m m'
_symmetry_Int_Tables_number 71
_refine_ls_R_factor_all 0.066
loop_
_symmetry_equiv_pos_site_id
_symmetry_equiv_pos_as_xyz
1 'x, y, -z'
2 'x, -y, z'
3 '-x, y, z'
4 '-x, -y, -z'
5 '-x, -y, z'
6 '-x, y, -z'
7 'x, -y, -z'
8 'x, y, z'
9 'x+1/2, y+1/2, -z+1/2'
10 'x+1/2, -y+1/2, z+1/2'
11 '-x+1/2, y+1/2, z+1/2'
12 '-x+1/2, -y+1/2, -z+1/2'
13 '-x+1/2, -y+1/2, z+1/2'
14 '-x+1/2, y+1/2, -z+1/2'
15 'x+1/2, -y+1/2, -z+1/2'
16 'x+1/2, y+1/2, z+1/2'
loop_
_atom_type_symbol
_atom_type_oxidation_number
Re0+ 0
Si0+ 0
loop_
_atom_site_label
_atom_site_type_symbol
_atom_site_symmetry_multiplicity
_atom_site_Wyckoff_symbol
_atom_site_fract_x
_atom_site_fract_y
_atom_site_fract_z
_atom_site_B_iso_or_equiv
_atom_site_occupancy
_atom_site_attached_hydrogens
Re1 Re0+ 2 a 0 0 0 . 1. 0
Si1 Si0+ 4 i 0 0 0.339(2) . 1. 0
loop_
_atom_site_aniso_label
_atom_site_aniso_type_symbol
_atom_site_aniso_U_11
_atom_site_aniso_U_22
_atom_site_aniso_U_33
_atom_site_aniso_U_12
_atom_site_aniso_U_13
_atom_site_aniso_U_23
Re1 Re0+ 0.017(2) 0.006(2) 0.003(2) 0 0 0
Si1 Si0+ 0.037(8) 0.024(7) 0.018(6) 0 0 0
#End of TTdata_38274-ICSD