
#(C) 2018 by FIZ Karlsruhe - Leibniz Institute for Information Infrastructure.  All rights reserved.
data_406486-ICSD
_database_code_ICSD 406486
_audit_creation_date 2002-04-01
_chemical_name_systematic 'Cesium germanide (4/9)'
_chemical_formula_structural 'Cs4 Ge9'
_chemical_formula_sum 'Cs4 Ge9'
_exptl_crystal_density_diffrn 4.17
_cell_measurement_temperature 173.
_publ_section_title
'Ge9(4-): A deltahedral Zintl ion now made in the solid-state'
loop_
_citation_id
_citation_journal_full
_citation_year
_citation_journal_volume
_citation_page_first
_citation_page_last
_citation_journal_id_ASTM
primary 'Angewandte Chemie, International Edition in English' 1997 36 1754 1756
ACIEAY
loop_
_publ_author_name
'Queneau, V.'
'Sevov, S.'
_cell_length_a 15.5074(5)
_cell_length_b 15.5074
_cell_length_c 31.39969(90)
_cell_angle_alpha 90.
_cell_angle_beta 90.
_cell_angle_gamma 90.
_cell_volume 7550.98
_cell_formula_units_Z 16
_symmetry_space_group_name_H-M 'P 41'
_symmetry_Int_Tables_number 76
_refine_ls_R_factor_all 0.1416
loop_
_symmetry_equiv_pos_site_id
_symmetry_equiv_pos_as_xyz
1 'y, -x, z+3/4'
2 '-y, x, z+1/4'
3 '-x, -y, z+1/2'
4 'x, y, z'
loop_
_atom_type_symbol
_atom_type_oxidation_number
Cs1+ 1
Ge0+ -0.44
loop_
_atom_site_label
_atom_site_type_symbol
_atom_site_symmetry_multiplicity
_atom_site_Wyckoff_symbol
_atom_site_fract_x
_atom_site_fract_y
_atom_site_fract_z
_atom_site_B_iso_or_equiv
_atom_site_occupancy
_atom_site_attached_hydrogens
Cs1 Cs1+ 4 a 0.1451(2) 0.5100(2) 0.16475(12) . 1. 0
Cs2 Cs1+ 4 a -.2869(2) 0.6002(3) 0.33647(12) . 1. 0
Cs3 Cs1+ 4 a -.0400(3) 0.8058(2) 0.25082(12) . 1. 0
Cs4 Cs1+ 4 a 0.2800(2) 0.8084(3) 0.17428(13) . 1. 0
Cs5 Cs1+ 4 a 0.0921(2) 0.5363(2) -.00854(11) . 1. 0
Cs6 Cs1+ 4 a 0.1545(2) 1.0404(2) 0.15371(12) . 1. 0
Cs7 Cs1+ 4 a 0.2104(2) 0.2906(2) 0.24821(12) . 1. 0
Cs8 Cs1+ 4 a -.0133(3) 1.1396(3) 0.25477(14) . 1. 0
Cs9 Cs1+ 4 a -.0169(2) 0.7952(2) 0.38704(13) . 1. 0
Cs10 Cs1+ 4 a 0.3226(2) 0.2992(2) 0.10714(12) . 1. 0
Cs11 Cs1+ 4 a 0.3686(2) 0.6059(2) 0.07866(13) . 1. 0
Cs12 Cs1+ 4 a -.1473(2) 0.5351(2) 0.19714(11) . 1. 0
Cs13 Cs1+ 4 a -.5090(2) 0.7661(2) 0.32404(12) . 1. 0
Cs14 Cs1+ 4 a 0.2681(3) 0.6482(3) 0.29058(15) . 1. 0
Cs15 Cs1+ 4 a 0.1904(3) 0.6515(4) 0.44357(14) . 1. 0
Cs16 Cs1+ 4 a 0.2471(4) 0.2631(4) -.0301(2) . 1. 0
Ge1 Ge0+ 4 a -.0243(4) 0.8723(4) 0.1371(2) . 1. 0
Ge2 Ge0+ 4 a 0.0467(4) 0.7246(4) 0.1485(2) . 1. 0
Ge3 Ge0+ 4 a 0.1029(4) 0.8490(4) 0.0864(2) . 1. 0
Ge4 Ge0+ 4 a 0.1369(4) 0.9307(4) 0.3081(2) . 1. 0
Ge5 Ge0+ 4 a -.1215(4) 0.7399(4) 0.1191(2) . 1. 0
Ge6 Ge0+ 4 a 0.1272(4) 0.6868(4) 0.0800(2) . 1. 0
Ge7 Ge0+ 4 a 0.0479(4) 0.7710(4) 0.0196(2) . 1. 0
Ge8 Ge0+ 4 a 0.2974(4) 0.9016(4) 0.2894(2) . 1. 0
Ge9 Ge0+ 4 a -.0197(4) 0.6112(4) 0.0969(2) . 1. 0
Ge10 Ge0+ 4 a -.0577(4) 0.3758(4) 0.0418(2) 0.031(2) 1. 0
Ge11 Ge0+ 4 a 0.0929(4) 0.3600(4) 0.0711(2) 0.0294(15) 1. 0
Ge12 Ge0+ 4 a -.2302(4) 1.0009(4) 0.2670(2) 0.0290(15) 1. 0
Ge13 Ge0+ 4 a -.2427(4) 0.8624(4) 0.3223(2) 0.0288(15) 1. 0
Ge14 Ge0+ 4 a -.0538(4) 0.3644(4) 0.1240(2) 0.032(2) 1. 0
Ge15 Ge0+ 4 a 0.1239(4) 1.1979(4) 0.0701(2) 0.0282(15) 1. 0
Ge16 Ge0+ 4 a -.1165(4) 0.9781(4) 0.3262(2) 0.0303(15) 1. 0
Ge17 Ge0+ 4 a -.0636(4) 1.2030(4) 0.1437(2) 0.037(2) 1. 0
Ge18 Ge0+ 4 a 0.0852(4) 0.2728(4) 0.1414(2) 0.0243(14) 1. 0
Ge19 Ge0+ 4 a 0.4523(4) 0.8433(4) 0.0857(2) 0.035(2) 1. 0
Ge20 Ge0+ 4 a 0.4631(4) 0.9397(4) 0.1514(2) 0.040(2) 1. 0
Ge21 Ge0+ 4 a 0.3436(4) 0.9666(4) 0.0771(3) 0.052(2) 1. 0
Ge22 Ge0+ 4 a 0.0516(4) 0.4804(4) 0.2738(2) 0.035(2) 1. 0
Ge23 Ge0+ 4 a 0.0762(4) 0.5957(4) 0.3441(2) 0.034(2) 1. 0
Ge24 Ge0+ 4 a 0.0826(5) 0.6051(4) -.1215(2) 0.048(2) 1. 0
Ge25 Ge0+ 4 a -.1000(4) 0.4228(5) 0.2991(2) 0.056(2) 1. 0
Ge26 Ge0+ 4 a -.0628(4) 0.5870(4) 0.3019(2) 0.042(2) 1. 0
Ge27 Ge0+ 4 a -.0701(4) 0.5602(4) 0.3826(2) 0.034(2) 1. 0
Ge28 Ge0+ 4 a 0.5790(4) 0.5850(4) 0.1480(2) 0.0266(15) 1. 0
Ge29 Ge0+ 4 a -.4594(4) 0.4695(4) 0.3968(2) 0.031(2) 1. 0
Ge30 Ge0+ 4 a 0.4505(4) 0.6215(4) 0.1976(2) 0.035(2) 1. 0
Ge31 Ge0+ 4 a -.3852(4) 0.5907(4) 0.2281(2) 0.0271(15) 1. 0
Ge32 Ge0+ 4 a -.4400(4) 0.6295(4) 0.4294(2) 0.0259(15) 1. 0
Ge33 Ge0+ 4 a 0.3768(4) 0.4748(4) 0.2146(2) 0.042(2) 1. 0
Ge34 Ge0+ 4 a -.5224(4) 0.5492(4) 0.2705(2) 0.033(2) 1. 0
Ge35 Ge0+ 4 a -.3995(4) 0.4381(4) 0.2606(2) 0.0275(15) 1. 0
Ge36 Ge0+ 4 a 0.3573(4) 0.5051(4) -.0401(2) 0.030(2) 1. 0
loop_
_atom_site_aniso_label
_atom_site_aniso_type_symbol
_atom_site_aniso_U_11
_atom_site_aniso_U_22
_atom_site_aniso_U_33
_atom_site_aniso_U_12
_atom_site_aniso_U_13
_atom_site_aniso_U_23
Cs1 Cs1+ 0.035(2) 0.027(2) 0.034(2) 0.002(2) -.001(2) 0.004(2)
Cs2 Cs1+ 0.032(2) 0.052(2) 0.027(2) 0.002(2) 0.001(2) -.003(2)
Cs3 Cs1+ 0.048(2) 0.041(2) 0.027(2) -.002(2) 0.010(2) -.010(2)
Cs4 Cs1+ 0.038(2) 0.046(2) 0.042(3) 0.001(2) -.008(2) 0.001(2)
Cs5 Cs1+ 0.051(2) 0.036(2) 0.018(2) -.004(2) -.006(2) 0.000(2)
Cs6 Cs1+ 0.048(2) 0.029(2) 0.032(2) 0.004(2) -.010(2) -.004(2)
Cs7 Cs1+ 0.038(2) 0.035(2) 0.033(2) 0.001(2) -.004(2) 0.003(2)
Cs8 Cs1+ 0.030(2) 0.112(4) 0.040(3) -.001(3) -.001(2) 0.027(3)
Cs9 Cs1+ 0.038(2) 0.030(2) 0.045(2) 0.009(2) 0.001(2) 0.002(2)
Cs10 Cs1+ 0.022(2) 0.036(2) 0.047(2) -.006(2) 0.002(2) -.005(2)
Cs11 Cs1+ 0.031(2) 0.042(2) 0.036(2) 0.008(2) 0.004(2) 0.005(2)
Cs12 Cs1+ 0.034(2) 0.047(2) 0.022(2) -.002(2) 0.002(2) 0.002(2)
Cs13 Cs1+ 0.038(2) 0.030(2) 0.045(3) -.003(2) 0.002(2) -.001(2)
Cs14 Cs1+ 0.046(3) 0.039(2) 0.068(3) -.002(2) 0.028(2) 0.000(2)
Cs15 Cs1+ 0.032(2) 0.112(4) 0.040(3) 0.007(3) -.001(2) 0.002(3)
Cs16 Cs1+ 0.100(4) 0.136(5) 0.046(3) -.089(4) 0.032(3) -.034(3)
Ge1 Ge0+ 0.027(3) 0.030(3) 0.023(4) -.002(3) 0.003(3) 0.003(3)
Ge2 Ge0+ 0.030(4) 0.040(4) 0.025(4) 0.012(3) 0.005(3) -.012(3)
Ge3 Ge0+ 0.040(4) 0.032(4) 0.034(4) 0.017(3) 0.007(3) 0.004(3)
Ge4 Ge0+ 0.027(3) 0.029(3) 0.025(4) -.010(3) -.005(3) 0.000(3)
Ge5 Ge0+ 0.029(3) 0.026(3) 0.023(4) -.003(3) -.001(3) 0.001(3)
Ge6 Ge0+ 0.019(3) 0.037(4) 0.071(5) -.004(3) 0.007(3) -.010(4)
Ge7 Ge0+ 0.036(4) 0.041(4) 0.021(3) 0.006(3) 0.003(3) 0.004(3)
Ge8 Ge0+ 0.031(4) 0.025(3) 0.026(4) 0.005(3) -.010(3) -.002(3)
Ge9 Ge0+ 0.021(3) 0.041(4) 0.029(4) 0.002(3) 0.004(3) 0.009(3)
#End of TTdata_406486-ICSD