
#(C) 2017 by FIZ Karlsruhe - Leibniz Institute for Information Infrastructure.  All rights reserved.
data_36333-ICSD
_database_code_ICSD 36333
_audit_creation_date 1980-12-31
_audit_update_record 2002-04-01
_chemical_name_systematic 'Octaselenium - gamma'
_chemical_formula_structural Se8
_chemical_formula_sum Se8
_exptl_crystal_density_diffrn 4.33
_publ_section_title 'Crystal structure of gamma-monoclinic Selenium'
loop_
_citation_id
_citation_journal_full
_citation_year
_citation_journal_volume
_citation_page_first
_citation_page_last
_citation_journal_id_ASTM
primary

;
Journal of the Chemical Society. Dalton Transactions, Inorganic Chemistry
(1972-)
; 1980 1980 624 627 JCDTBI
loop_
_publ_author_name
'Foss, O.'
'Janickis, V.'
_cell_length_a 15.018(1)
_cell_length_b 14.713(1)
_cell_length_c 8.789(1)
_cell_angle_alpha 90.
_cell_angle_beta 93.61(1)
_cell_angle_gamma 90.
_cell_volume 1938.16
_cell_formula_units_Z 8
_symmetry_space_group_name_H-M 'P 1 21/c 1'
_symmetry_Int_Tables_number 14
_refine_ls_R_factor_all 0.047
loop_
_symmetry_equiv_pos_site_id
_symmetry_equiv_pos_as_xyz
1 'x, -y+1/2, z+1/2'
2 '-x, -y, -z'
3 '-x, y+1/2, -z+1/2'
4 'x, y, z'
loop_
_atom_type_symbol
_atom_type_oxidation_number
Se0+ 0
loop_
_atom_site_label
_atom_site_type_symbol
_atom_site_symmetry_multiplicity
_atom_site_Wyckoff_symbol
_atom_site_fract_x
_atom_site_fract_y
_atom_site_fract_z
_atom_site_B_iso_or_equiv
_atom_site_occupancy
_atom_site_attached_hydrogens
Se1 Se0+ 4 e 0.18313(10) 0.14063(10) 0.03451(18) . 1. 0
Se2 Se0+ 4 e 0.22865(10) 0.28408(10) 0.12262(18) . 1. 0
Se3 Se0+ 4 e 0.35548(11) 0.31907(11) -.00548(19) . 1. 0
Se4 Se0+ 4 e 0.47826(10) 0.28776(10) 0.16131(19) . 1. 0
Se5 Se0+ 4 e 0.52853(10) 0.14438(10) 0.09345(19) . 1. 0
Se6 Se0+ 4 e 0.47966(10) 0.04033(10) 0.27102(19) . 1. 0
Se7 Se0+ 4 e 0.35296(10) -.02818(10) 0.15123(19) . 1. 0
Se8 Se0+ 4 e 0.22521(10) 0.04261(10) 0.23430(18) . 1. 0
Se9 Se0+ 4 e 0.09552(11) 0.48601(11) 0.14213(23) . 1. 0
Se10 Se0+ 4 e 0.01298(11) 0.5888(11) 0.27815(20) . 1. 0
Se11 Se0+ 4 e -.01931(10) 0.71476(12) 0.12135(21) . 1. 0
Se12 Se0+ 4 e 0.08347(11) 0.82945(10) 0.18553(20) . 1. 0
Se13 Se0+ 4 e 0.19177(11) 0.81338(10) 0.00963(19) . 1. 0
Se14 Se0+ 4 e 0.3102(1) 0.73961(10) 0.14402(20) . 1. 0
Se15 Se0+ 4 e 0.30834(10) 0.59137(11) 0.04778(19) . 1. 0
Se16 Se0+ 4 e 0.24353(11) 0.50553(10) 0.23353(20) . 1. 0
#End of TTdata_36333-ICSD