
#(C) 2017 by FIZ Karlsruhe - Leibniz Institute for Information Infrastructure.  All rights reserved.
data_52706-ICSD
_database_code_ICSD 52706
_audit_creation_date 2003-04-01
_audit_update_record 2012-08-01
_chemical_name_systematic 'Beryllium - HP'
_chemical_formula_structural Be
_chemical_formula_sum Be1
_exptl_crystal_density_diffrn 2.15
_cell_measurement_pressure 28300000.
_publ_section_title 'On the high-pressure phase transition in beryllium metal'
loop_
_citation_id
_citation_journal_full
_citation_year
_citation_journal_volume
_citation_page_first
_citation_page_last
_citation_journal_id_ASTM
primary 'Journal of Physics F' 1984 14 L65 L68 JPFMAT
loop_
_publ_author_name
'Vijayakumar, V.'
'Godwal, B.K.'
'Vohra, Y.K.'
'Sikka, S.K.'
'Chidambaram, R.'
_cell_length_a 3.416
_cell_length_b 3.755
_cell_length_c 2.168
_cell_angle_alpha 90.
_cell_angle_beta 90.
_cell_angle_gamma 90.
_cell_volume 27.81
_cell_formula_units_Z 4
_symmetry_space_group_name_H-M 'P 21 21 2'
_symmetry_Int_Tables_number 18
loop_
_symmetry_equiv_pos_site_id
_symmetry_equiv_pos_as_xyz
1 '-x+1/2, y+1/2, -z'
2 'x+1/2, -y+1/2, -z'
3 '-x, -y, z'
4 'x, y, z'
loop_
_atom_type_symbol
_atom_type_oxidation_number
Be0+ 0
loop_
_atom_site_label
_atom_site_type_symbol
_atom_site_symmetry_multiplicity
_atom_site_Wyckoff_symbol
_atom_site_fract_x
_atom_site_fract_y
_atom_site_fract_z
_atom_site_B_iso_or_equiv
_atom_site_occupancy
_atom_site_attached_hydrogens
Be1 Be0+ 4 c 0.67 0.82 0.7 . 1. 0
#End of TTdata_52706-ICSD