
#(C) 2017 by FIZ Karlsruhe - Leibniz Institute for Information Infrastructure.  All rights reserved.
data_79592-ICSD
_database_code_ICSD 79592
_audit_creation_date 1996-10-14
_chemical_name_systematic Strontium
_chemical_formula_structural Sr
_chemical_formula_sum Sr1
_exptl_crystal_density_diffrn 1.47
_publ_section_title

;
Rietveld analysis of an incommensurate composite crystal with a nominal
composition Sr1.19 Ti S3
;
loop_
_citation_id
_citation_journal_full
_citation_year
_citation_journal_volume
_citation_page_first
_citation_page_last
_citation_journal_id_ASTM
primary 'Japanese Journal of Applied Physics, Part 1' 1993 32 752 753 JAPNDE
loop_
_publ_author_name
'Onoda, M.'
'Saeki, M.'
_cell_length_a 11.5211(2)
_cell_length_b 11.5211(2)
_cell_length_c 5.1586(12)
_cell_angle_alpha 90.
_cell_angle_beta 90.
_cell_angle_gamma 120.
_cell_volume 592.99
_cell_formula_units_Z 6
_symmetry_space_group_name_H-M 'P 3 1 c'
_symmetry_Int_Tables_number 159
_refine_ls_R_factor_all 0.112
loop_
_symmetry_equiv_pos_site_id
_symmetry_equiv_pos_as_xyz
1 '-x, -x+y, z+1/2'
2 'x-y, -y, z+1/2'
3 'y, x, z+1/2'
4 '-x+y, -x, z'
5 '-y, x-y, z'
6 'x, y, z'
loop_
_atom_type_symbol
_atom_type_oxidation_number
Sr0+ 0
loop_
_atom_site_label
_atom_site_type_symbol
_atom_site_symmetry_multiplicity
_atom_site_Wyckoff_symbol
_atom_site_fract_x
_atom_site_fract_y
_atom_site_fract_z
_atom_site_B_iso_or_equiv
_atom_site_occupancy
_atom_site_attached_hydrogens
Sr1 Sr0+ 6 c 0.33333 0 0 1. 1. 0
#End of TTdata_79592-ICSD