
#(C) 2017 by FIZ Karlsruhe - Leibniz Institute for Information Infrastructure.  All rights reserved.
data_85005-ICSD
_database_code_ICSD 85005
_audit_creation_date 1999-06-02
_chemical_name_systematic 'Dicesium tetravanadate(V)'
_chemical_formula_structural 'Cs2 V4 O11'
_chemical_formula_sum 'Cs2 O11 V4'
_exptl_crystal_density_diffrn 3.76
_publ_section_title
'Crystal structure of Cs2 V4 O11 with unusual V-O coordinations'
loop_
_citation_id
_citation_journal_full
_citation_year
_citation_journal_volume
_citation_page_first
_citation_page_last
_citation_journal_id_ASTM
primary 'Journal of Solid State Chemistry' 1997 134 52 58 JSSCBI
loop_
_publ_author_name
'Oka, Y.'
'Saito, F.'
'Yao, T.'
'Yamamoto, N.'
_cell_length_a 5.671(2)
_cell_length_b 9.639(2)
_cell_length_c 5.222(2)
_cell_angle_alpha 90.
_cell_angle_beta 90.
_cell_angle_gamma 90.
_cell_volume 285.45
_cell_formula_units_Z 1
_symmetry_space_group_name_H-M 'C m m 2'
_symmetry_Int_Tables_number 35
_refine_ls_R_factor_all 0.036
loop_
_symmetry_equiv_pos_site_id
_symmetry_equiv_pos_as_xyz
1 'x, -y, z'
2 '-x, y, z'
3 '-x, -y, z'
4 'x, y, z'
5 'x+1/2, -y+1/2, z'
6 '-x+1/2, y+1/2, z'
7 '-x+1/2, -y+1/2, z'
8 'x+1/2, y+1/2, z'
loop_
_atom_type_symbol
_atom_type_oxidation_number
Cs1+ 1
V5+ 5
O2- -2
loop_
_atom_site_label
_atom_site_type_symbol
_atom_site_symmetry_multiplicity
_atom_site_Wyckoff_symbol
_atom_site_fract_x
_atom_site_fract_y
_atom_site_fract_z
_atom_site_B_iso_or_equiv
_atom_site_occupancy
_atom_site_attached_hydrogens
Cs1 Cs1+ 2 a 0 0 0 . 1. 0
V1 V5+ 4 e 0 0.6718(1) 0.4915(7) . 1. 0
O1 O2- 2 b 0 0.5 0.362(2) . 1. 0
O2 O2- 4 e 0 0.6654(6) 0.796(1) . 1. 0
O3 O2- 4 c 0.25 0.25 0.356(2) . 0.75 0
O4 O2- 8 f 0.150(2) 0.142(1) 0.489(5) . 0.25 0
loop_
_atom_site_aniso_label
_atom_site_aniso_type_symbol
_atom_site_aniso_U_11
_atom_site_aniso_U_22
_atom_site_aniso_U_33
_atom_site_aniso_U_12
_atom_site_aniso_U_13
_atom_site_aniso_U_23
Cs1 Cs1+ 0.0348(3) 0.0316(3) 0.0211(2) 0 0 0
V1 V5+ 0.0386(6) 0.0163(4) 0.0391(8) 0 0 0.009(1)
O1 O2- 0.047(5) 0.013(3) 0.033(4) 0 0 0
O2 O2- 0.044(3) 0.027(3) 0.026(3) 0 0 -.002(2)
O3 O2- 0.011(2) 0.024(3) 0.030(3) 0.004(2) 0 0
O4 O2- 0.009(4) 0.016(4) 0.031(7) 0.004(3) -.007(9) -.008(10)
#End of TTdata_85005-ICSD