
#(C) 2017 by FIZ Karlsruhe - Leibniz Institute for Information Infrastructure, and the U.S. Secretary of
#Commerce on behalf of the United States.  All rights reserved.
data_612348-ICSD
_database_code_ICSD 612348
_audit_creation_date 2012-02-01
_chemical_name_systematic 'Gold stannide (1/4)'
_chemical_formula_structural 'Au Sn4'
_chemical_formula_sum 'Au1 Sn4'
_chemical_name_structure_type PtSn4
_exptl_crystal_density_diffrn 8.96
_publ_section_title
'The influence of temperature on the crystal structure of Au Sn4'
_publ_section_comment 'Cell and Type only determined'
loop_
_citation_id
_citation_journal_full
_citation_year
_citation_journal_volume
_citation_page_first
_citation_page_last
_citation_journal_id_ASTM
primary 'Journal of the Less-Common Metals' 1981 80 P53 P58 JCOMAH
loop_
_publ_author_name
'Kubiak, R.'
_cell_length_a 6.502(1)
_cell_length_b 6.543(1)
_cell_length_c 11.705(2)
_cell_angle_alpha 90.
_cell_angle_beta 90.
_cell_angle_gamma 90.
_cell_volume 497.96
_cell_formula_units_Z 4
_symmetry_space_group_name_H-M 'A b a 2'
_symmetry_Int_Tables_number 41
loop_
_symmetry_equiv_pos_site_id
_symmetry_equiv_pos_as_xyz
1 'x+1/2, -y+1/2, z'
2 '-x+1/2, y+1/2, z'
3 '-x, -y, z'
4 'x, y, z'
5 'x+1/2, -y, z+1/2'
6 '-x+1/2, y, z+1/2'
7 '-x, -y+1/2, z+1/2'
8 'x, y+1/2, z+1/2'
loop_
_atom_type_symbol
_atom_type_oxidation_number
Au0+ 0
Sn0+ 0
loop_
_atom_site_label
_atom_site_type_symbol
_atom_site_symmetry_multiplicity
_atom_site_Wyckoff_symbol
_atom_site_fract_x
_atom_site_fract_y
_atom_site_fract_z
_atom_site_B_iso_or_equiv
_atom_site_occupancy
_atom_site_attached_hydrogens
Au1 Au0+ 4 a 0 0 0 . 1. 0
Sn1 Sn0+ 8 b 0.173 0.327 0.125 . 1. 0
Sn2 Sn0+ 8 b 0.327 0.173 0.875 . 1. 0
#End of TTdata_612348-ICSD