
#(C) 2017 by FIZ Karlsruhe - Leibniz Institute for Information Infrastructure.  All rights reserved.
data_20935-ICSD
_database_code_ICSD 20935
_audit_creation_date 1985-09-26
_audit_update_record 1999-11-30
_chemical_name_systematic 'Erbium cyclo-triphosphate'
_chemical_formula_structural 'Er (P3 O9)'
_chemical_formula_sum 'Er1 O9 P3'
_exptl_crystal_density_diffrn 3.64
_publ_section_title
'The crystal structure of a new modification of Tr P3 O9 (Tr = Er)'
loop_
_citation_id
_citation_journal_full
_citation_year
_citation_journal_volume
_citation_page_first
_citation_page_last
_citation_journal_id_ASTM
primary Kristallografiya 1984 29 677 680 KRISAJ
loop_
_publ_author_name
'Dorokhova, G.I.'
'Karpov, O.G.'
_cell_length_a 10.943(3)
_cell_length_b 6.971(2)
_cell_length_c 9.670(2)
_cell_angle_alpha 90.
_cell_angle_beta 90.
_cell_angle_gamma 91.82(2)
_cell_volume 737.29
_cell_formula_units_Z 4
_symmetry_space_group_name_H-M 'P 1 1 m'
_symmetry_Int_Tables_number 6
_refine_ls_R_factor_all 0.077
loop_
_symmetry_equiv_pos_site_id
_symmetry_equiv_pos_as_xyz
1 'x, y, -z'
2 'x, y, z'
loop_
_atom_type_symbol
_atom_type_oxidation_number
Er3+ 3
P5+ 5
O2- -2
loop_
_atom_site_label
_atom_site_type_symbol
_atom_site_symmetry_multiplicity
_atom_site_Wyckoff_symbol
_atom_site_fract_x
_atom_site_fract_y
_atom_site_fract_z
_atom_site_B_iso_or_equiv
_atom_site_occupancy
_atom_site_attached_hydrogens
Er1 Er3+ 1 a 0 0 0 0.11(2) 1. 0
Er2 Er3+ 1 a 0.4799(2) 0.8628(4) 0 0.60(3) 1. 0
Er3 Er3+ 1 b 0.4442(2) 0.4847(4) 0.5 0.32(3) 1. 0
Er4 Er3+ 1 b 0.9269(1) 0.3449(1) 0.5 0.75(3) 1. 0
P1 P5+ 1 a 0.0856(9) 0.489(1) 0 0.08(3) 1. 0
P2 P5+ 2 c 0.1758(7) 0.503(1) 0.282(1) 0.5(1) 1. 0
P3 P5+ 1 b 0.3651(9) 0.996(1) 0.5 0.4(1) 1. 0
P4 P5+ 2 c 0.2343(7) 0.905(1) 0.2369(1) 0.38(9) 1. 0
P5 P5+ 1 a 0.572(1) 0.351(1) 0 0.5(1) 1. 0
P6 P5+ 2 c 0.6999(7) 0.438(1) 0.2558(8) 0.5(1) 1. 0
P7 P5+ 2 c 0.7449(7) 0.849(1) 0.215(1) 0.4(1) 1. 0
P8 P5+ 1 b 0.832(1) 0.859(2) 0.5 0.8(2) 1. 0
O1 O2- 1 a 0.054(2) 0.685(3) 0 0.8(3) 1. 0
O2 O2- 1 a 0.020(2) 0.311(2) 0 0.6(2) 1. 0
O3 O2- 2 c 0.062(1) 0.410(2) 0.333(2) 0.9(2) 1. 0
O4 O2- 2 c 0.167(1) 0.723(2) 0.308(1) 0.6(2) 1. 0
O5 O2- 2 c 0.306(1) 0.458(2) 0.333(2) 0.6(2) 1. 0
O6 O2- 2 c 0.186(2) 0.458(2) 0.122(1) 0.3(2) 1. 0
O7 O2- 2 c 0.149(1) 0.027(2) 0.154(1) 0.7(2) 1. 0
O8 O2- 2 c 0.257(1) 0.017(2) 0.368(1) 0.6(2) 1. 0
O9 O2- 2 c 0.339(1) 0.849(2) 0.160(1) 0.5(2) 1. 0
O10 O2- 1 b 0.445(2) 0.157(3) 0.5 0.2(3) 1. 0
O11 O2- 1 b 0.400(2) 0.798(3) 0.5 0.2(2) 1. 0
O12 O2- 1 a 0.469(2) 0.181(3) 0 0.9(3) 1. 0
O13 O2- 1 a 0.504(2) 0.555(4) 0 0.9(4) 1. 0
O14 O2- 2 c 0.647(1) 0.319(2) 0.131(1) 0.8(2) 1. 0
O15 O2- 2 c 0.580(2) 0.514(3) 0.321(2) 1.8(4) 1. 0
O16 O2- 2 c 0.790(1) 0.316(2) 0.324(2) 1.1(2) 1. 0
O17 O2- 2 c 0.776(1) 0.624(2) 0.205(1) 0.6(1) 1. 0
O18 O2- 2 c 0.632(2) 0.898(3) 0.152(2) 1.6(3) 1. 0
O19 O2- 2 c 0.850(1) 0.952(2) 0.151(1) 0.6(2) 1. 0
O20 O2- 2 c 0.743(1) 0.860(2) 0.376(2) 1.1(3) 1. 0
O21 O2- 1 b 0.934(1) 0.027(2) 0.5 0.1(1) 1. 0
O22 O2- 1 b 0.900(1) 0.663(2) 0.5 0.2(2) 1. 0
#End of TTdata_20935-ICSD