
#(C) 2017 by FIZ Karlsruhe - Leibniz Institute for Information Infrastructure.  All rights reserved.
data_257192-ICSD
_database_code_ICSD 257192
_audit_creation_date 2017-08-01
_chemical_name_systematic 'Hydrogen(I/0) oxide - "hydrogen-water ice"'
_chemical_formula_structural '(H2 O)2 H2'
_chemical_formula_sum 'H6 O2'
_exptl_crystal_density_diffrn 0.89
_cell_measurement_temperature 282.
_publ_section_title 'Hydrogen-stuffed, quartz-like water ice'
loop_
_citation_id
_citation_journal_full
_citation_year
_citation_journal_volume
_citation_page_first
_citation_page_last
_citation_journal_id_ASTM
primary 'Journal of the American Chemical Society' 2016 138 13786 13789 JACSAT
loop_
_publ_author_name
'Strobel, Timothy A.'
'Somayazulu, Maddury'
'Sinogeikin, Stanislav V.'
'Dera, Przemyslaw'
'Hemley, Russell J.'
_cell_length_a 6.285(4)
_cell_length_b 6.285(4)
_cell_length_c 6.213(6)
_cell_angle_alpha 90.
_cell_angle_beta 90.
_cell_angle_gamma 120.
_cell_volume 212.54
_cell_formula_units_Z 3
_symmetry_space_group_name_H-M 'P 65 2 2'
_symmetry_Int_Tables_number 179
_refine_ls_R_factor_all 0.0259
loop_
_symmetry_equiv_pos_site_id
_symmetry_equiv_pos_as_xyz
1 'x, x-y, -z'
2 '-x+y, y, -z+1/2'
3 '-y, -x, -z'
4 '-x, -x+y, -z+1/3'
5 'x-y, -y, -z'
6 'y, x, -z+2/3'
7 'x-y, x, z'
8 'y, -x+y, z'
9 '-x, -y, z+1/2'
10 '-x+y, -x, z+1/3'
11 '-y, x-y, z+2/3'
12 'x, y, z'
loop_
_atom_type_symbol
_atom_type_oxidation_number
O2- -2
H1+ 1
H0+ 0
loop_
_atom_site_label
_atom_site_type_symbol
_atom_site_symmetry_multiplicity
_atom_site_Wyckoff_symbol
_atom_site_fract_x
_atom_site_fract_y
_atom_site_fract_z
_atom_site_B_iso_or_equiv
_atom_site_occupancy
_atom_site_attached_hydrogens
O1 O2- 6 b 0.2366(6) 0.4731(12) 0.75 0.052(2) 1. 0
H1 H1+ 12 c 0.3184 0.39132 0.80765 0.09(2) 0.5 0
H2 H1+ 12 c 0.33754 0.57411 0.63405 0.09(2) 0.5 0
H3 H0+ 6 a 0.84(2) 0 0 0.21(4) 0.5 0
#End of TTdata_257192-ICSD