
#(C) 2017 by FIZ Karlsruhe - Leibniz Institute for Information Infrastructure.  All rights reserved.
data_75506-ICSD
_database_code_ICSD 75506
_audit_creation_date 1996-04-22
_chemical_name_systematic Carbon
_chemical_formula_structural C70
_chemical_formula_sum C70
_exptl_crystal_density_diffrn 1.73
_cell_measurement_temperature 220.
_publ_section_title 'Low-temperature structure of solid C70'
loop_
_citation_id
_citation_journal_full
_citation_year
_citation_journal_volume
_citation_page_first
_citation_page_last
_citation_journal_id_ASTM
primary 'Chemical Physics Letters' 1994 223 323 328 CHPLBC
loop_
_publ_author_name
'van Smaalen, S.'
'Petricek, V.'
'de Boer, J.L.'
'Dusek, M.'
'Verheijen, M.A.'
'Meijer, G.'
_cell_length_a 10.016(6)
_cell_length_b 17.349(10)
_cell_length_c 18.53(5)
_cell_angle_alpha 90.
_cell_angle_beta 90.
_cell_angle_gamma 90.
_cell_volume 3219.91
_cell_formula_units_Z 4
_symmetry_space_group_name_H-M 'P b n m'
_symmetry_Int_Tables_number 62
_refine_ls_R_factor_all 0.096
loop_
_symmetry_equiv_pos_site_id
_symmetry_equiv_pos_as_xyz
1 '-x+1/2, y+1/2, z'
2 'x, y, -z+1/2'
3 'x+1/2, -y+1/2, z+1/2'
4 '-x, -y, -z'
5 'x+1/2, -y+1/2, -z'
6 '-x, -y, z+1/2'
7 '-x+1/2, y+1/2, -z+1/2'
8 'x, y, z'
loop_
_atom_type_symbol
_atom_type_oxidation_number
C0+ 0
loop_
_atom_site_label
_atom_site_type_symbol
_atom_site_symmetry_multiplicity
_atom_site_Wyckoff_symbol
_atom_site_fract_x
_atom_site_fract_y
_atom_site_fract_z
_atom_site_B_iso_or_equiv
_atom_site_occupancy
_atom_site_attached_hydrogens
C1 C0+ 4 c 0.16762 0.09432 0.25 0.014 0.880(3) 0
C2 C0+ 4 c 0.50638 -.04351 0.25 0.014 0.880(3) 0
C3 C0+ 4 c 0.83812 0.0999 0.25 0.014 0.880(3) 0
C4 C0+ 4 c 0.70439 0.32638 0.25 0.014 0.880(3) 0
C5 C0+ 4 c 0.28999 0.32293 0.25 0.014 0.880(3) 0
C6 C0+ 4 c 0.19387 0.25963 0.25 0.014 0.880(3) 0
C7 C0+ 4 c 0.24219 0.02198 0.25 0.014 0.880(3) 0
C8 C0+ 4 c 0.64859 -.02492 0.25 0.014 0.880(3) 0
C9 C0+ 4 c 0.85144 0.18373 0.25 0.014 0.880(3) 0
C10 C0+ 4 c 0.57041 0.35959 0.25 0.014 0.880(3) 0
C11 C0+ 8 d 0.38001 0.16642 0.4622 0.014 0.880(3) 0
C12 C0+ 8 d 0.45324 0.09538 0.4622 0.014 0.880(3) 0
C13 C0+ 8 d 0.59289 0.11364 0.4622 0.014 0.880(3) 0
C14 C0+ 8 d 0.60596 0.19597 0.4622 0.014 0.880(3) 0
C15 C0+ 8 d 0.4744 0.22858 0.4622 0.014 0.880(3) 0
C16 C0+ 8 d 0.2641 0.17256 0.4227 0.014 0.880(3) 0
C17 C0+ 8 d 0.40731 0.03363 0.4227 0.014 0.880(3) 0
C18 C0+ 8 d 0.68042 0.06934 0.4227 0.014 0.880(3) 0
C19 C0+ 8 d 0.70599 0.23034 0.4227 0.014 0.880(3) 0
C20 C0+ 8 d 0.44869 0.29413 0.4227 0.014 0.880(3) 0
C21 C0+ 8 d 0.21674 0.1082 0.3806 0.014 0.880(3) 0
C22 C0+ 8 d 0.4987 -.01225 0.3806 0.014 0.880(3) 0
C23 C0+ 8 d 0.78425 0.10534 0.3806 0.014 0.880(3) 0
C24 C0+ 8 d 0.67877 0.29848 0.3806 0.014 0.880(3) 0
C25 C0+ 8 d 0.32803 0.30024 0.3806 0.014 0.880(3) 0
C26 C0+ 8 d 0.23781 0.24082 0.3806 0.014 0.880(3) 0
C27 C0+ 8 d 0.28674 0.04029 0.3806 0.014 0.880(3) 0
C28 C0+ 8 d 0.63219 0.00519 0.3806 0.014 0.880(3) 0
C29 C0+ 8 d 0.79675 0.18403 0.3806 0.014 0.880(3) 0
C30 C0+ 8 d 0.55301 0.32966 0.3806 0.014 0.880(3) 0
C31 C0+ 8 d 0.15996 0.13781 0.3147 0.014 0.880(3) 0
C32 C0+ 8 d 0.43238 -.03427 0.3147 0.014 0.880(3) 0
C33 C0+ 8 d 0.80004 0.06212 0.3147 0.014 0.880(3) 0
C34 C0+ 8 d 0.75485 0.29379 0.3147 0.014 0.880(3) 0
C35 C0+ 8 d 0.35926 0.34057 0.3147 0.014 0.880(3) 0
C36 C0+ 8 d 0.17265 0.21767 0.3147 0.014 0.880(3) 0
C37 C0+ 8 d 0.30475 -.00263 0.3147 0.014 0.880(3) 0
C38 C0+ 8 d 0.70847 0.00181 0.3147 0.014 0.880(3) 0
C39 C0+ 8 d 0.82589 0.22488 0.3147 0.014 0.880(3) 0
C40 C0+ 8 d 0.49474 0.35828 0.3147 0.014 0.880(3) 0
#End of TTdata_75506-ICSD