
#(C) 2017 by FIZ Karlsruhe - Leibniz Institute for Information Infrastructure.  All rights reserved.
data_61704-ICSD
_database_code_ICSD 61704
_audit_creation_date 1986-12-03
_audit_update_record 2016-08-01
_chemical_name_systematic 'Cyclo-sulfur (11)'
_chemical_formula_structural S11
_chemical_formula_sum S11
_exptl_crystal_density_diffrn 2.08
_publ_section_title

;
Darstellung, Kristallstruktur und Schwingungsspektren von cyclo-Undecaschwefel
(S11) und von cyclo-Tridecaschwefel (S13)
;
loop_
_citation_id
_citation_journal_full
_citation_year
_citation_journal_volume
_citation_page_first
_citation_page_last
_citation_journal_id_ASTM
primary

;
Zeitschrift fuer Naturforschung, Teil B. Anorganische Chemie, Organische
Chemie (33,1978-41,1986)
; 1986 41 958 970 ZNBAD2
loop_
_publ_author_name
'Steudel, R.'
'Steidel, J.'
'Sandow, T.'
_cell_length_a 14.933(10)
_cell_length_b 8.321(5)
_cell_length_c 18.086(12)
_cell_angle_alpha 90.
_cell_angle_beta 90.
_cell_angle_gamma 90.
_cell_volume 2247.32
_cell_formula_units_Z 8
_symmetry_space_group_name_H-M 'P c a 21'
_symmetry_Int_Tables_number 29
_refine_ls_R_factor_all 0.032
loop_
_symmetry_equiv_pos_site_id
_symmetry_equiv_pos_as_xyz
1 'x+1/2, -y, z'
2 '-x+1/2, y, z+1/2'
3 '-x, -y, z+1/2'
4 'x, y, z'
loop_
_atom_type_symbol
_atom_type_oxidation_number
S0+ 0
loop_
_atom_site_label
_atom_site_type_symbol
_atom_site_symmetry_multiplicity
_atom_site_Wyckoff_symbol
_atom_site_fract_x
_atom_site_fract_y
_atom_site_fract_z
_atom_site_B_iso_or_equiv
_atom_site_occupancy
_atom_site_attached_hydrogens
S1 S0+ 4 a 0.4217(1) 0.4503(2) 0.1408 . 1. 0
S2 S0+ 4 a 0.3379(1) 0.4783(3) 0.2281(1) . 1. 0
S3 S0+ 4 a 0.2139(1) 0.4010(2) 0.1917(1) . 1. 0
S4 S0+ 4 a 0.1709(1) 0.5759(2) 0.1203(1) . 1. 0
S5 S0+ 4 a 0.1193(1) 0.7620(2) 0.1834(1) . 1. 0
S6 S0+ 4 a 0.1983(1) 0.9573(3) 0.1644(1) . 1. 0
S7 S0+ 4 a 0.2759(1) 0.9915(3) 0.2607(1) . 1. 0
S8 S0+ 4 a 0.4005(1) 0.0554(3) 0.2252(1) . 1. 0
S9 S0+ 4 a 0.4821(1) 0.8568(3) 0.2310(1) . 1. 0
S10 S0+ 4 a 0.5159(1) 0.8002(3) 0.1245(1) . 1. 0
S11 S0+ 4 a 0.4114(1) 0.6640(2) 0.0852(1) . 1. 0
S12 S0+ 4 a 0.6718(1) 0.0536(2) 0.4695(1) . 1. 0
S13 S0+ 4 a 0.5845(1) 0.0201(3) 0.3826(1) . 1. 0
S14 S0+ 4 a 0.4615(1) 0.0914(2) 0.4226(1) . 1. 0
S15 S0+ 4 a 0.4221(1) 0.9139(2) 0.4934(1) . 1. 0
S16 S0+ 4 a 0.3712(1) 0.7285(2) 0.4292(1) . 1. 0
S17 S0+ 4 a 0.4492(1) 0.5315(2) 0.4474(1) . 1. 0
S18 S0+ 4 a 0.5274(1) 0.4959(3) 0.3538(1) . 1. 0
S19 S0+ 4 a 0.6534(1) 0.4415(2) 0.3878(1) . 1. 0
S20 S0+ 4 a 0.7306(1) 0.6467(2) 0.3826(1) . 1. 0
S21 S0+ 4 a 0.7650(1) 0.7041(3) 0.4886(1) . 1. 0
S22 S0+ 4 a 0.6615(1) 0.8426(2) 0.5281(1) . 1. 0
loop_
_atom_site_aniso_label
_atom_site_aniso_type_symbol
_atom_site_aniso_U_11
_atom_site_aniso_U_22
_atom_site_aniso_U_33
_atom_site_aniso_U_12
_atom_site_aniso_U_13
_atom_site_aniso_U_23
S1 S0+ 0.0193(9) 0.022(1) 0.0393(12) 0.0022(8) -.0049(9) -.0012(9)
S2 S0+ 0.0218(10) 0.0344(11) 0.0269(10) -.0035(9) 0.0004(9) -.0019(9)
S3 S0+ 0.0192(9) 0.0226(10) 0.0339(11) -.0019(8) -.0009(9) -.0018(9)
S4 S0+ 0.0228(10) 0.0268(10) 0.0313(11) -.0016(8) 0.0016(9) -.0005(9)
S5 S0+ 0.0171(9) 0.0228(10) 0.0519(14) 0.0003(8) -.0048(10) 0.0001(10)
S6 S0+ 0.0192(10) 0.0250(11) 0.0568(15) -.0007(8) 0.0049(10) -.0066(11)
S7 S0+ 0.0281(12) 0.0416(13) 0.0437(13) -.0034(10) -.014(1) 0.0098(11)
S8 S0+ 0.0306(10) 0.0255(10) 0.0328(11) -.0033(8) 0.0035(9) 0.0019(9)
S9 S0+ 0.029(1) 0.0310(11) 0.0329(11) -.0033(9) 0.0094(9) -.0036(10)
S10 S0+ 0.0197(9) 0.0271(10) 0.0421(12) -.0040(8) -.0051(9) 0.0012(10)
S11 S0+ 0.0242(9) 0.0263(10) 0.0286(10) -.0030(8) -.0013(9) -.0011(9)
S12 S0+ 0.0229(9) 0.0203(9) 0.0394(11) -.0023(8) -.0002(9) 0.0030(9)
S13 S0+ 0.0265(10) 0.0303(11) 0.0254(10) -.0009(9) 0.0005(9) -.0019(9)
S14 S0+ 0.0239(10) 0.0222(9) 0.0383(12) -.0002(8) 0.0040(9) -.0033(9)
S15 S0+ 0.0196(9) 0.0285(11) 0.0319(11) -.0014(8) -.0015(8) -.0007(9)
S16 S0+ 0.0155(9) 0.024(1) 0.0524(14) 0.0006(8) 0.0036(9) -.0008(10)
S17 S0+ 0.0212(10) 0.0221(10) 0.0597(15) 0.0015(8) -.0055(10) -.0085(10)
S18 S0+ 0.0355(12) 0.0345(11) 0.0305(11) 0.0073(10) 0.0059(10) 0.005(1)
S19 S0+ 0.0205(9) 0.0215(9) 0.0343(11) 0.0034(8) -.0007(9) -.0008(9)
S20 S0+ 0.0283(11) 0.0274(10) 0.0305(11) -.0011(8) -.0101(9) -.0004(9)
S21 S0+ 0.0203(10) 0.0303(10) 0.0386(12) 0.0035(8) 0.0033(9) 0.0049(10)
S22 S0+ 0.0262(10) 0.0275(10) 0.0271(10) 0.0021(8) -.0009(9) 0.0004(9)
#End of TTdata_61704-ICSD