
#(C) 2018 by FIZ Karlsruhe - Leibniz Institute for Information Infrastructure.  All rights reserved.
data_173662-ICSD
_database_code_ICSD 173662
_audit_creation_date 2009-02-01
_chemical_name_systematic 'Tungsten aluminide (1/2)'
_chemical_formula_structural 'W Al2'
_chemical_formula_sum 'Al2 W1'
_chemical_name_structure_type CrSi2
_exptl_crystal_density_diffrn 9.21
_cell_measurement_temperature 295.
_publ_section_title

;
Crystal structure and high-pressure studies of W Al2, an aluminide
crystallizing with the Cr Si2 structure type
;
loop_
_citation_id
_citation_journal_full
_citation_year
_citation_journal_volume
_citation_page_first
_citation_page_last
_citation_journal_id_ASTM
primary 'Journal of Solid State Chemistry' 2008 181 2719 2724 JSSCBI
loop_
_publ_author_name
'Gu, Q.F.'
'Jung, D.-Y.'
'Krauss, G.'
'Steurer, W.'
_cell_length_a 4.7422(1)
_cell_length_b 4.7422(1)
_cell_length_c 6.6057(2)
_cell_angle_alpha 90.
_cell_angle_beta 90.
_cell_angle_gamma 120.
_cell_volume 128.65
_cell_formula_units_Z 3
_symmetry_space_group_name_H-M 'P 64 2 2'
_symmetry_Int_Tables_number 181
_refine_ls_R_factor_all 0.0236
loop_
_symmetry_equiv_pos_site_id
_symmetry_equiv_pos_as_xyz
1 'x, x-y, -z+2/3'
2 '-x+y, y, -z'
3 '-y, -x, -z+1/3'
4 '-x, -x+y, -z+2/3'
5 'x-y, -y, -z'
6 'y, x, -z+1/3'
7 'x-y, x, z+2/3'
8 'y, -x+y, z+1/3'
9 '-x, -y, z'
10 '-x+y, -x, z+2/3'
11 '-y, x-y, z+1/3'
12 'x, y, z'
loop_
_atom_type_symbol
_atom_type_oxidation_number
W6+ 6
Al3- -3
loop_
_atom_site_label
_atom_site_type_symbol
_atom_site_symmetry_multiplicity
_atom_site_Wyckoff_symbol
_atom_site_fract_x
_atom_site_fract_y
_atom_site_fract_z
_atom_site_B_iso_or_equiv
_atom_site_occupancy
_atom_site_attached_hydrogens
W1 W6+ 3 d 0.5 0.5 0.1667 . 1. 0
Al1 Al3- 6 j 0.8382(4) 0.1618(4) 0.1667 . 1. 0
loop_
_atom_site_aniso_label
_atom_site_aniso_type_symbol
_atom_site_aniso_U_11
_atom_site_aniso_U_22
_atom_site_aniso_U_33
_atom_site_aniso_U_12
_atom_site_aniso_U_13
_atom_site_aniso_U_23
W1 W6+ 0.0083(3) 0.0083(3) 0.0130(3) 0.0031(2) 0 0
Al1 Al3- 0.0040(8) 0.0040(8) 0.0040(10) 0.0002(1) 0.0006(1) 0.0006(1)
#End of TTdata_173662-ICSD