
#(C) 2017 by FIZ Karlsruhe - Leibniz Institute for Information Infrastructure.  All rights reserved.
data_23638-ICSD
_database_code_ICSD 23638
_audit_creation_date 1980-01-01
_audit_update_record 2012-02-01
_chemical_name_systematic 'Strontium trio-trisulfide'
_chemical_formula_structural 'Sr S3'
_chemical_formula_sum 'S3 Sr1'
_exptl_crystal_density_diffrn 3.07
_publ_section_title
'Die Strukturen der Polysulfide Ba S3, Sr S3, Ba S2 und Sr S2'
loop_
_citation_id
_citation_journal_full
_citation_year
_citation_journal_volume
_citation_page_first
_citation_page_last
_citation_journal_id_ASTM
primary Naturwissenschaften 1974 61 272 272 NATWAY
loop_
_publ_author_name
'von Schnering, H.G.'
'Goh, N.K.'
_cell_length_a 6.982(2)
_cell_length_b 8.032(2)
_cell_length_c 7.088(2)
_cell_angle_alpha 90.
_cell_angle_beta 90.
_cell_angle_gamma 90.
_cell_volume 397.49
_cell_formula_units_Z 4
_symmetry_space_group_name_H-M 'A b a 2'
_symmetry_Int_Tables_number 41
_refine_ls_R_factor_all 0.079
loop_
_symmetry_equiv_pos_site_id
_symmetry_equiv_pos_as_xyz
1 'x+1/2, -y+1/2, z'
2 '-x+1/2, y+1/2, z'
3 '-x, -y, z'
4 'x, y, z'
5 'x+1/2, -y, z+1/2'
6 '-x+1/2, y, z+1/2'
7 '-x, -y+1/2, z+1/2'
8 'x, y+1/2, z+1/2'
loop_
_atom_type_symbol
_atom_type_oxidation_number
Sr2+ 2
S0+ 0
S1- -1
loop_
_atom_site_label
_atom_site_type_symbol
_atom_site_symmetry_multiplicity
_atom_site_Wyckoff_symbol
_atom_site_fract_x
_atom_site_fract_y
_atom_site_fract_z
_atom_site_B_iso_or_equiv
_atom_site_occupancy
_atom_site_attached_hydrogens
Sr1 Sr2+ 4 a 0 0 0 . 1. 0
S1 S0+ 4 a 0 0 0.5339(9) . 1. 0
S2 S1- 8 b 0.1399(6) 0.1645(8) 0.3611(8) . 1. 0
#End of TTdata_23638-ICSD