
#(C) 2018 by FIZ Karlsruhe - Leibniz Institute for Information Infrastructure.  All rights reserved.
data_47169-ICSD
_database_code_ICSD 47169
_audit_creation_date 1985-06-13
_audit_update_record 2012-02-01
_chemical_name_systematic Boron
_chemical_formula_structural 'B21 (B12)2 B2.5'
_chemical_formula_sum B47.5
_chemical_name_structure_type B(tP190)
_exptl_crystal_density_diffrn 2.34
_publ_section_title
'Crystal structure of tetragonal boron related to alpha-Al B12'
loop_
_citation_id
_citation_journal_full
_citation_year
_citation_journal_volume
_citation_page_first
_citation_page_last
_citation_journal_id_ASTM
primary 'Journal of Solid State Chemistry' 1979 28 289 301 JSSCBI
loop_
_publ_author_name
'Vlasse, M.'
'Naslain, R.'
'Kasper, J.S.'
'Ploog, K.'
_cell_length_a 10.14(1)
_cell_length_b 10.14(1)
_cell_length_c 14.17(1)
_cell_angle_alpha 90.
_cell_angle_beta 90.
_cell_angle_gamma 90.
_cell_volume 1456.95
_cell_formula_units_Z 4
_symmetry_space_group_name_H-M 'P 43'
_symmetry_Int_Tables_number 78
_refine_ls_R_factor_all 0.096
loop_
_symmetry_equiv_pos_site_id
_symmetry_equiv_pos_as_xyz
1 'y, -x, z+1/4'
2 '-y, x, z+3/4'
3 '-x, -y, z+1/2'
4 'x, y, z'
loop_
_atom_type_symbol
_atom_type_oxidation_number
B0+ 0
loop_
_atom_site_label
_atom_site_type_symbol
_atom_site_symmetry_multiplicity
_atom_site_Wyckoff_symbol
_atom_site_fract_x
_atom_site_fract_y
_atom_site_fract_z
_atom_site_B_iso_or_equiv
_atom_site_occupancy
_atom_site_attached_hydrogens
B1 B0+ 4 a -.123(1) 0.742(1) 0.128(1) 0.0054(5) 1. 0
B2 B0+ 4 a 0.238(1) 0.377(1) 0.871(1) 0.0012(5) 1. 0
B3 B0+ 4 a -.040(1) 0.628(1) 0.208(1) 0.0079(5) 1. 0
B4 B0+ 4 a 0.131(1) 0.461(1) 0.790(1) 0.0029(5) 1. 0
B5 B0+ 4 a -.044(1) 0.809(1) 0.225(1) 0.004(5) 1. 0
B6 B0+ 4 a 0.313(1) 0.459(1) 0.770(1) 0.0014(5) 1. 0
B7 B0+ 4 a -.044(1) 0.893(1) 0.116(1) 0.004(5) 1. 0
B8 B0+ 4 a 0.394(1) 0.460(1) 0.883(1) 0.0034(5) 1. 0
B9 B0+ 4 a -.033(1) 0.606(1) 0.078(1) 0.0027(5) 1. 0
B10 B0+ 4 a 0.106(1) 0.470(1) 0.920(1) 0.0053(5) 1. 0
B11 B0+ 4 a -.037(1) 0.776(1) 0.028(1) 0.0119(5) 1. 0
B12 B0+ 4 a 0.271(1) 0.468(1) 0.969(1) 0.0155(5) 1. 0
B13 B0+ 4 a 0.109(1) 0.721(1) 0.244(1) 0.0058(8) 1. 0
B14 B0+ 4 a 0.220(1) 0.607(1) 0.754(1) 0.0125(5) 1. 0
B15 B0+ 4 a 0.105(1) 0.886(1) 0.191(1) 0.0204(5) 1. 0
B16 B0+ 4 a 0.388(1) 0.608(1) 0.806(1) 0.0060(5) 1. 0
B17 B0+ 4 a 0.118(1) 0.600(1) 0.155(1) 0.0065(5) 1. 0
B18 B0+ 4 a 0.098(1) 0.622(1) 0.845(1) 0.0179(5) 1. 0
B19 B0+ 4 a 0.113(1) 0.687(1) 0.047(1) 0.00154(5) 1. 0
B20 B0+ 4 a 0.194(1) 0.616(1) 0.932(1) 0.0034(5) 1. 0
B21 B0+ 4 a 0.112(1) 0.864(1) 0.065(1) 0.0071(5) 1. 0
B22 B0+ 4 a 0.365(1) 0.613(1) 0.934(1) 0.0135(5) 1. 0
B23 B0+ 4 a 0.204(1) 0.758(1) 0.144(1) 0.0025(5) 1. 0
B24 B0+ 4 a 0.260(1) 0.702(1) 0.860(1) 0.0191(5) 1. 0
B25 B0+ 4 a 0.317(1) 0.554(1) 0.362(1) 0.0029(5) 1. 0
B26 B0+ 4 a 0.056(1) 0.814(1) 0.632(1) 0.0115(5) 1. 0
B27 B0+ 4 a 0.389(1) 0.698(1) 0.325(1) 0.0276(5) 1. 0
B28 B0+ 4 a 0.197(1) 0.886(1) 0.675(1) 0.0352(5) 1. 0
B29 B0+ 4 a 0.203(1) 0.696(1) 0.340(1) 0.0062(5) 1. 0
B30 B0+ 4 a 0.193(1) 0.706(1) 0.655(1) 0.0030(5) 1. 0
B31 B0+ 4 a 0.468(1) 0.614(1) 0.413(1) 0.0042(5) 1. 0
B32 B0+ 4 a 0.113(1) 0.964(1) 0.589(1) 0.0039(5) 1. 0
B33 B0+ 4 a 0.467(1) 0.792(1) 0.420(1) 0.0107(5) 1. 0
B34 B0+ 4 a 0.292(1) 0.955(1) 0.574(1) 0.0123(5) 1. 0
B35 B0+ 4 a 0.187(1) 0.589(1) 0.449(1) 0.0121(5) 1. 0
B36 B0+ 4 a 0.091(1) 0.688(1) 0.552(1) 0.0029(5) 1. 0
B37 B0+ 4 a 0.265(1) 0.675(1) 0.547(1) 0.0039(5) 1. 0
B38 B0+ 4 a 0.171(1) 0.767(1) 0.455(1) 0.0070(5) 1. 0
B39 B0+ 4 a 0.346(1) 0.536(1) 0.496(1) 0.0058(5) 1. 0
B40 B0+ 4 a 0.040(1) 0.849(1) 0.503(1) 0.0052(5) 1. 0
B41 B0+ 4 a 0.439(1) 0.685(1) 0.524(1) 0.0072(5) 1. 0
B42 B0+ 4 a 0.182(1) 0.940(1) 0.476(1) 0.0011(5) 1. 0
B43 B0+ 4 a 0.334(1) 0.835(1) 0.497(1) 0.0062(5) 1. 0
B44 B0+ 4 a 0.039(1) 0.534(1) 0.497(1) 0.0085(5) 1. 0
B45 B0+ 4 a 0.290(1) 0.839(1) 0.384(1) 0.0287(5) 1. 0
B46 B0+ 4 a 0.332(1) 0.801(1) 0.629(1) 0.0250(5) 1. 0
B47 B0+ 4 a 0.145(1) 0.433(1) 0.466(1) 0.0202(5) 0.50(3) 0
B48 B0+ 4 a 0.061(1) 0.360(1) 0.035(1) 0.0060(5) 0.50(3) 0
B49 B0+ 4 a 0.225(1) 0.244(1) 0.732(1) 0.0583(5) 0.47(3) 0
#End of TTdata_47169-ICSD