
#(C) 2017 by FIZ Karlsruhe - Leibniz Institute for Information Infrastructure.  All rights reserved.
data_22406-ICSD
_database_code_ICSD 22406
_audit_creation_date 1984-09-05
_audit_update_record 2006-04-01
_chemical_name_systematic Chlorine
_chemical_formula_structural Cl2
_chemical_formula_sum Cl2
_exptl_crystal_density_diffrn 2.1
_cell_measurement_temperature 88.
_publ_section_title 'On the structure of solid chlorine'
loop_
_citation_id
_citation_journal_full
_citation_year
_citation_journal_volume
_citation_page_first
_citation_page_last
_citation_journal_id_ASTM
primary 'Proceedings of the Koninklijke Nederlandse Academie van Wetenschappen'
1936 39 314 314 PKNAAU
loop_
_publ_author_name
'Keesom, W.H.'
'Taconis, K.W.'
_cell_length_a 8.56
_cell_length_b 8.56
_cell_length_c 6.12
_cell_angle_alpha 90.
_cell_angle_beta 90.
_cell_angle_gamma 90.
_cell_volume 448.43
_cell_formula_units_Z 8
_symmetry_space_group_name_H-M 'P 42/n c m S'
_symmetry_Int_Tables_number 138
loop_
_symmetry_equiv_pos_site_id
_symmetry_equiv_pos_as_xyz
1 'y+1/2, -x+1/2, z+1/2'
2 'y+1/2, x+1/2, z'
3 'y, x, -z+1/2'
4 'y, -x, -z'
5 '-y+1/2, x+1/2, z+1/2'
6 '-y+1/2, -x+1/2, z'
7 '-y, -x, -z+1/2'
8 '-y, x, -z'
9 '-x+1/2, -y+1/2, -z+1/2'
10 'x+1/2, -y+1/2, -z'
11 'x, -y, z+1/2'
12 '-x, -y, z'
13 'x+1/2, y+1/2, -z+1/2'
14 '-x+1/2, y+1/2, -z'
15 '-x, y, z+1/2'
16 'x, y, z'
loop_
_atom_type_symbol
_atom_type_oxidation_number
Cl0+ 0
loop_
_atom_site_label
_atom_site_type_symbol
_atom_site_symmetry_multiplicity
_atom_site_Wyckoff_symbol
_atom_site_fract_x
_atom_site_fract_y
_atom_site_fract_z
_atom_site_B_iso_or_equiv
_atom_site_occupancy
_atom_site_attached_hydrogens
Cl1 Cl0+ 16 j 0.125 0.167 0.107 . 1. 0
#End of TTdata_22406-ICSD