
#(C) 2018 by FIZ Karlsruhe - Leibniz Institute for Information Infrastructure.  All rights reserved.
data_71309-ICSD
_database_code_ICSD 71309
_audit_creation_date 1993-01-06
_chemical_name_systematic 'Copper(I) triselenium bromide'
_chemical_formula_structural 'Cu Se3 Br'
_chemical_formula_sum 'Br1 Cu1 Se3'
_exptl_crystal_density_diffrn 5.13
_publ_section_title 'Crystal structure of CuBrSe3'
loop_
_citation_id
_citation_journal_full
_citation_year
_citation_journal_volume
_citation_page_first
_citation_page_last
_citation_journal_id_ASTM
primary 'Journal of the Physical Society of Japan' 1991 60 1608 1611 JUPSAU
loop_
_publ_author_name
'Sakuma, T.'
'Kaneko, T.'
'Kurita, T.'
'Takahashi, H.'
_cell_length_a 4.481(1)
_cell_length_b 7.672(1)
_cell_length_c 14.329(2)
_cell_angle_alpha 90.
_cell_angle_beta 90.
_cell_angle_gamma 90.
_cell_volume 492.61
_cell_formula_units_Z 4
_symmetry_space_group_name_H-M 'P n c 2'
_symmetry_Int_Tables_number 30
_refine_ls_R_factor_all 0.017
loop_
_symmetry_equiv_pos_site_id
_symmetry_equiv_pos_as_xyz
1 'x, -y+1/2, z+1/2'
2 '-x, y+1/2, z+1/2'
3 '-x, -y, z'
4 'x, y, z'
loop_
_atom_type_symbol
_atom_type_oxidation_number
Cu1+ 1
Br1- -1
Se0+ 0
loop_
_atom_site_label
_atom_site_type_symbol
_atom_site_symmetry_multiplicity
_atom_site_Wyckoff_symbol
_atom_site_fract_x
_atom_site_fract_y
_atom_site_fract_z
_atom_site_B_iso_or_equiv
_atom_site_occupancy
_atom_site_attached_hydrogens
Cu1 Cu1+ 4 c 0.8011(11) 0.7210(11) 0.7454(7) 3.45(12) 1. 0
Br1 Br1- 2 b 0.5 0 0.1901(11) 1.4(3) 1. 0
Br2 Br1- 2 b 0.5 0 0.8358(11) 2.4(3) 1. 0
Se1 Se0+ 4 c 0.1393(6) 0.2305(3) 0.0091(6) 2.32(8) 1. 0
Se2 Se0+ 4 c 0.9153(8) 0.1371(5) 0.3854(3) 1.48(12) 1. 0
Se3 Se0+ 4 c 0.8698(9) 0.3523(6) 0.1349(4) 3.07(17) 1. 0
#End of TTdata_71309-ICSD