
#(C) 2017 by FIZ Karlsruhe - Leibniz Institute for Information Infrastructure.  All rights reserved.
data_91737-ICSD
_database_code_ICSD 91737
_audit_creation_date 2002-10-01
_audit_update_record 2008-02-01
_chemical_name_systematic 'Silicon oxide - phase II'
_chemical_formula_structural 'Si O2'
_chemical_formula_sum 'O2 Si1'
_chemical_name_structure_type SiO2(mP24)
_chemical_name_mineral Cristobalite
_exptl_crystal_density_diffrn 2.79
_cell_measurement_pressure 3500000.
_publ_section_title

;
Crystal structure of the high-pressure monoclinic phase-II of cristobalite, Si
O2
;
loop_
_citation_id
_citation_journal_full
_citation_year
_citation_journal_volume
_citation_page_first
_citation_page_last
_citation_journal_id_ASTM
primary 'Mineralogical Magazine (1969-)' 2000 64 569 576 MNLMBB
loop_
_publ_author_name
'Dove, M.T.'
'Craig, M.S.'
'Keen, D.A.'
'Marshall, W.G.'
'Redfern, S.A.T.'
'Trachenko, K.O.'
'Tucker, M.G.'
_cell_length_a 8.3769(16)
_cell_length_b 4.6020(9)
_cell_length_c 9.0583(18)
_cell_angle_alpha 90.
_cell_angle_beta 124.939(11)
_cell_angle_gamma 90.
_cell_volume 286.26
_cell_formula_units_Z 8
_symmetry_space_group_name_H-M 'P 1 21/c 1'
_symmetry_Int_Tables_number 14
_refine_ls_R_factor_all 0.031
loop_
_symmetry_equiv_pos_site_id
_symmetry_equiv_pos_as_xyz
1 'x, -y+1/2, z+1/2'
2 '-x, -y, -z'
3 '-x, y+1/2, -z+1/2'
4 'x, y, z'
loop_
_atom_type_symbol
_atom_type_oxidation_number
Si4+ 4
O2- -2
loop_
_atom_site_label
_atom_site_type_symbol
_atom_site_symmetry_multiplicity
_atom_site_Wyckoff_symbol
_atom_site_fract_x
_atom_site_fract_y
_atom_site_fract_z
_atom_site_B_iso_or_equiv
_atom_site_occupancy
_atom_site_attached_hydrogens
Si1 Si4+ 4 e 0.3725(3) 0.7310(8) 0.2145(4) -.0003(13) 1. 0
Si2 Si4+ 4 e 0.1207(4) 0.9699(9) 0.8403(4) -.0003(13) 1. 0
O1 O2- 4 e 0.1859(5) 0.8645(11) 0.0351(4) 0.0044(9) 1. 0
O2 O2- 4 e 0.2997(5) 0.5912(11) 0.3276(6) 0.0044(9) 1. 0
O3 O2- 4 e 0.5296(7) 0.9791(11) 0.3297(4) 0.0044(9) 1. 0
O4 O2- 4 e 0.927(5) 0.8089(9) 0.6839(4) 0.0044(9) 1. 0
#End of TTdata_91737-ICSD