
#(C) 2018 by FIZ Karlsruhe - Leibniz Institute for Information Infrastructure.  All rights reserved.
data_2933-ICSD
_database_code_ICSD 2933
_audit_creation_date 1980-01-01
_audit_update_record 2003-04-01
_chemical_name_systematic 'Strontium dithionate tetrahydrate'
_chemical_formula_structural 'Sr (S2 O6) (H2 O)4'
_chemical_formula_sum 'H8 O10 S2 Sr1'
_exptl_crystal_density_diffrn 2.39
_publ_section_title 'The structure of strontium dithionate tetrahydrate'
loop_
_citation_id
_citation_journal_full
_citation_year
_citation_journal_volume
_citation_page_first
_citation_page_last
_citation_journal_id_ASTM
primary 'Zeitschrift fuer Kristallographie' 1972 135 399 407 ZEKRDZ
loop_
_publ_author_name
'Hargreaves, R.N.'
'Stanley, E.'
_cell_length_a 6.32(2)
_cell_length_b 6.32(2)
_cell_length_c 19.29(3)
_cell_angle_alpha 90.
_cell_angle_beta 90.
_cell_angle_gamma 120.
_cell_volume 667.26
_cell_formula_units_Z 3
_symmetry_space_group_name_H-M 'P 62'
_symmetry_Int_Tables_number 171
_refine_ls_R_factor_all 0.119
loop_
_symmetry_equiv_pos_site_id
_symmetry_equiv_pos_as_xyz
1 'x-y, x, z+1/3'
2 'y, -x+y, z+2/3'
3 '-x, -y, z'
4 '-x+y, -x, z+1/3'
5 '-y, x-y, z+2/3'
6 'x, y, z'
loop_
_atom_type_symbol
_atom_type_oxidation_number
Sr2+ 2
S5+ 5
O2- -2
H1+ 1
loop_
_atom_site_label
_atom_site_type_symbol
_atom_site_symmetry_multiplicity
_atom_site_Wyckoff_symbol
_atom_site_fract_x
_atom_site_fract_y
_atom_site_fract_z
_atom_site_B_iso_or_equiv
_atom_site_occupancy
_atom_site_attached_hydrogens
Sr1 Sr2+ 3 a 0 0 0 0.6 1. 0
S1 S5+ 6 c 0.692 0.065 0.162 1.6 1. 0
O1 O2- 6 c 0.747 0.004 0.097 3.4 1. 0
O2 O2- 6 c 0.752 0.985 0.223 5.5 1. 0
O3 O2- 6 c 0.808 0.319 0.166 3.5 1. 0
O4 O2- 6 c 0.188 0.448 0.038 4.4 1. 0
O5 O2- 6 c 0.449 0.199 0.952 2.6 1. 0
#End of TTdata_2933-ICSD