
#(C) 2018 by FIZ Karlsruhe - Leibniz Institute for Information Infrastructure.  All rights reserved.
data_290322-ICSD
_database_code_ICSD 290322
_audit_creation_date 2014-02-01
_chemical_name_systematic 'Zinc oxide'
_chemical_formula_structural 'Zn O'
_chemical_formula_sum 'O1 Zn1'
_chemical_name_mineral Zincite
_exptl_crystal_density_diffrn 5.69
_cell_measurement_temperature 293.
_publ_section_title
'Growth and structural, optical and electrical properties of Zincite crystals'
loop_
_citation_id
_citation_journal_full
_citation_year
_citation_journal_volume
_citation_page_first
_citation_page_last
_citation_journal_id_ASTM
primary 'Crystallography Reports' 2013 58 226 233 CYSTE3
loop_
_publ_author_name
'Kaurova, I.A.'
'Kuzmicheva, G.M.'
'Rybakov, V.B.'
_cell_length_a 3.2468(6)
_cell_length_b 3.2468(6)
_cell_length_c 5.2019(9)
_cell_angle_alpha 90.
_cell_angle_beta 90.
_cell_angle_gamma 120.
_cell_volume 47.49
_cell_formula_units_Z 2
_symmetry_space_group_name_H-M 'P 3'
_symmetry_Int_Tables_number 143
_refine_ls_R_factor_all 0.0283
loop_
_symmetry_equiv_pos_site_id
_symmetry_equiv_pos_as_xyz
1 '-x+y, -x, z'
2 '-y, x-y, z'
3 'x, y, z'
loop_
_atom_type_symbol
_atom_type_oxidation_number
Zn2+ 2
O2- -2
loop_
_atom_site_label
_atom_site_type_symbol
_atom_site_symmetry_multiplicity
_atom_site_Wyckoff_symbol
_atom_site_fract_x
_atom_site_fract_y
_atom_site_fract_z
_atom_site_B_iso_or_equiv
_atom_site_occupancy
_atom_site_attached_hydrogens
Zn1 Zn2+ 1 c 0.6667 0.3333 0.5002(2) 0.0050(2) 1. 0
Zn2 Zn2+ 1 b 0.3333 0.6667 0.0002(1) 0.0037(1) 0.95(1) 0
Zn3 Zn2+ 1 a 0 0 0.998(6) 0.0018 0.015(5) 0
O1 O2- 1 c 0.6667 0.3333 0.1189(10) 0.0039(2) 1. 0
O2 O2- 1 b 0.3333 0.6667 0.6192(10) 0.0023(3) 0.98(1) 0
#End of TTdata_290322-ICSD