
#(C) 2017 by FIZ Karlsruhe - Leibniz Institute for Information Infrastructure.  All rights reserved.
data_260679-ICSD
_database_code_ICSD 260679
_audit_creation_date 2010-08-01
_audit_update_record 2016-08-01
_chemical_name_systematic 'Calcium copper (1/5)'
_chemical_formula_structural 'Ca Cu5'
_chemical_formula_sum 'Ca1 Cu5'
_chemical_name_structure_type CaCu5
_exptl_crystal_density_diffrn 6.49
_publ_section_title

;
Polare intermetallische Phasen AM und AM2 (A= Ca, Sr, Ba; M= Ga, In Zn, Cd,
Hg, Cu, Ag, Au). Kristallchemie, chemische Bindung und Eigenschaften
;
loop_
_citation_id
_citation_journal_full
_citation_year
_citation_journal_volume
_citation_page_first
_citation_page_last
_citation_journal_id_ASTM
primary 'Dissertation Universitaet Freiburg/Breisgau' 2008 2008 1 229 DIFREZ
loop_
_publ_author_name
'Harms, W.'
_cell_length_a 5.1072(10)
_cell_length_b 5.1072(10)
_cell_length_c 4.0508(9)
_cell_angle_alpha 90.
_cell_angle_beta 90.
_cell_angle_gamma 120.
_cell_volume 91.5
_cell_formula_units_Z 1
_symmetry_space_group_name_H-M 'P 6/m m m'
_symmetry_Int_Tables_number 191
_refine_ls_R_factor_all 0.0127
loop_
_symmetry_equiv_pos_site_id
_symmetry_equiv_pos_as_xyz
1 '-x, -x+y, -z'
2 'x-y, -y, -z'
3 'y, x, -z'
4 '-x+y, -x, -z'
5 '-y, x-y, -z'
6 'x, y, -z'
7 'x, x-y, -z'
8 '-x+y, y, -z'
9 '-y, -x, -z'
10 'x-y, x, -z'
11 'y, -x+y, -z'
12 '-x, -y, -z'
13 'x, x-y, z'
14 '-x+y, y, z'
15 '-y, -x, z'
16 'x-y, x, z'
17 'y, -x+y, z'
18 '-x, -y, z'
19 '-x, -x+y, z'
20 'x-y, -y, z'
21 'y, x, z'
22 '-x+y, -x, z'
23 '-y, x-y, z'
24 'x, y, z'
loop_
_atom_type_symbol
_atom_type_oxidation_number
Cu0+ 0
Ca0+ 0
loop_
_atom_site_label
_atom_site_type_symbol
_atom_site_symmetry_multiplicity
_atom_site_Wyckoff_symbol
_atom_site_fract_x
_atom_site_fract_y
_atom_site_fract_z
_atom_site_B_iso_or_equiv
_atom_site_occupancy
_atom_site_attached_hydrogens
Cu1 Cu0+ 2 c 0.3333 0.6667 0 0.01331(9) 1. 0
Cu2 Cu0+ 3 g 0.5 0 0.5 0.01215(8) 1. 0
Ca1 Ca0+ 1 a 0 0 0 0.0143(2) 1. 0
#End of TTdata_260679-ICSD