
#(C) 2017 by FIZ Karlsruhe - Leibniz Institute for Information Infrastructure.  All rights reserved.
data_104590-ICSD
_database_code_ICSD 104590
_audit_creation_date 2004-10-01
_audit_update_record 2011-02-01
_chemical_name_systematic 'Iridium vanadium (1/1)'
_chemical_formula_structural 'Ir V'
_chemical_formula_sum 'Ir1 V1'
_chemical_name_structure_type IrV
_exptl_crystal_density_diffrn 14.82
_publ_section_title 'New intermediate phases in transition metal systems. II.'
loop_
_citation_id
_citation_journal_full
_citation_year
_citation_journal_volume
_citation_page_first
_citation_page_last
_citation_journal_id_ASTM
primary 'Acta Crystallographica (1,1948-23,1967)' 1965 18 1080 1081 ACCRA9
loop_
_publ_author_name
'Giessen, B.C.'
'Grant, N.J.'
_cell_length_a 5.791
_cell_length_b 6.756
_cell_length_c 2.796
_cell_angle_alpha 90.
_cell_angle_beta 90.
_cell_angle_gamma 90.
_cell_volume 109.39
_cell_formula_units_Z 4
_symmetry_space_group_name_H-M 'C m m m'
_symmetry_Int_Tables_number 65
loop_
_symmetry_equiv_pos_site_id
_symmetry_equiv_pos_as_xyz
1 'x, -y, z'
2 '-x, y, z'
3 'x, y, -z'
4 '-x, -y, -z'
5 '-x, y, -z'
6 'x, -y, -z'
7 '-x, -y, z'
8 'x, y, z'
9 'x+1/2, -y+1/2, z'
10 '-x+1/2, y+1/2, z'
11 'x+1/2, y+1/2, -z'
12 '-x+1/2, -y+1/2, -z'
13 '-x+1/2, y+1/2, -z'
14 'x+1/2, -y+1/2, -z'
15 '-x+1/2, -y+1/2, z'
16 'x+1/2, y+1/2, z'
loop_
_atom_type_symbol
_atom_type_oxidation_number
Ir0+ 0
V0+ 0
loop_
_atom_site_label
_atom_site_type_symbol
_atom_site_symmetry_multiplicity
_atom_site_Wyckoff_symbol
_atom_site_fract_x
_atom_site_fract_y
_atom_site_fract_z
_atom_site_B_iso_or_equiv
_atom_site_occupancy
_atom_site_attached_hydrogens
Ir1 Ir0+ 4 j 0 0.22 0.5 . 1. 0
V1 V0+ 4 g 0.28 0 0 . 1. 0
#End of TTdata_104590-ICSD