
#(C) 2018 by FIZ Karlsruhe - Leibniz Institute for Information Infrastructure.  All rights reserved.
data_80752-ICSD
_database_code_ICSD 80752
_audit_creation_date 1997-05-13
_chemical_name_systematic 'Barium copper oxide (1/1/2.4)'
_chemical_formula_structural 'Ba Cu O2.4'
_chemical_formula_sum 'Ba1 Cu1 O2.4'
_exptl_crystal_density_diffrn 5.98
_publ_section_title 'A new high-pressure form of Ba Cu O2+x'
loop_
_citation_id
_citation_journal_full
_citation_year
_citation_journal_volume
_citation_page_first
_citation_page_last
_citation_journal_id_ASTM
primary
'Physica C: Superconductivity and Ist Application (Amsterdam, Netherlands)' 1994 233 373 378 PHYCE6
loop_
_publ_author_name
'Laffez, P.'
'Wu, X.-J.'
'Jin, C.-Q.'
'Adachi, S.'
'Yamauchi, H.'
'Mori, N.'
_cell_length_a 9.827(1)
_cell_length_b 5.6783(7)
_cell_length_c 9.5252(4)
_cell_angle_alpha 90.
_cell_angle_beta 90.
_cell_angle_gamma 90.
_cell_volume 531.51
_cell_formula_units_Z 8
_symmetry_space_group_name_H-M 'P 2 2 21'
_symmetry_Int_Tables_number 17
_refine_ls_R_factor_all 0.027
loop_
_symmetry_equiv_pos_site_id
_symmetry_equiv_pos_as_xyz
1 '-x, y, -z+1/2'
2 '-x, -y, z+1/2'
3 'x, -y, -z'
4 'x, y, z'
loop_
_atom_type_symbol
_atom_type_oxidation_number
Ba2+ 2
Cu2+ 2.8
O2- -2
loop_
_atom_site_label
_atom_site_type_symbol
_atom_site_symmetry_multiplicity
_atom_site_Wyckoff_symbol
_atom_site_fract_x
_atom_site_fract_y
_atom_site_fract_z
_atom_site_B_iso_or_equiv
_atom_site_occupancy
_atom_site_attached_hydrogens
Ba1 Ba2+ 2 c 0 0 0.25 1.79 1. 0
Ba2 Ba2+ 2 b 0.162(3) 0.5 0.5 1.79 1. 0
Ba3 Ba2+ 2 a 0.320(3) 0 0 1.79 1. 0
Ba4 Ba2+ 2 d 0.5 0.470(1) 0.25 1.79 1. 0
Cu1 Cu2+ 4 e 0.170(6) 0.501(2) 0.141(7) 3.1 1. 0
Cu2 Cu2+ 4 e 0.323(3) -.002(1) 0.645(8) 3.1 1. 0
O1 O2- 4 e 0.26(2) 0.70(3) 0.26(3) 2. 0.8 0
O2 O2- 2 c 0 0.48(8) 0.25 2. 0.8 0
O3 O2- 4 e 0.253(3) 0.201(5) 0.247(2) 2. 0.8 0
O4 O2- 4 e 0.391(3) 0.24(35) 0.547(3) 2. 0.8 0
O5 O2- 2 a 0.118(9) 0 0.5 2. 0.8 0
O6 O2- 4 e 0.089(33) 0.26(5) 0.0055(30) 2. 0.8 0
O7 O2- 2 b 0.316(20) 0.5 0 2. 0.8 0
O8 O2- 2 d 0.5 -.10(4) 0.25 2. 0.8 0
#End of TTdata_80752-ICSD