
#(C) 2018 by FIZ Karlsruhe - Leibniz Institute for Information Infrastructure.  All rights reserved.
data_2492-ICSD
_database_code_ICSD 2492
_audit_creation_date 1980-01-01
_audit_update_record 2015-02-01
_chemical_name_systematic 'Ruthenium phosphide (1/4)'
_chemical_formula_structural 'Ru P4'
_chemical_formula_sum 'P4 Ru1'
_chemical_name_structure_type RuP4
_exptl_crystal_density_diffrn 4.84
_publ_section_title

;
Ueber Polyphosphide von Chrom, Mangan, Ruthenium und Osmium. Synthese und
Kristallstruktur von Ru P4 und Os P4
;
loop_
_citation_id
_citation_journal_full
_citation_year
_citation_journal_volume
_citation_page_first
_citation_page_last
_citation_journal_id_ASTM
primary 'Zeitschrift fuer Anorganische und Allgemeine Chemie (1950) (DE)' 1978
445 157 166 ZAACAB
loop_
_publ_author_name
'Braun, D.J.'
'Jeitschko, W.'
_cell_length_a 7.519(8)
_cell_length_b 7.145(7)
_cell_length_c 4.713(5)
_cell_angle_alpha 100.48(10)
_cell_angle_beta 90.35(10)
_cell_angle_gamma 111.08(11)
_cell_volume 231.61
_cell_formula_units_Z 3
_symmetry_space_group_name_H-M 'P -1'
_symmetry_Int_Tables_number 2
_refine_ls_R_factor_all 0.058
loop_
_symmetry_equiv_pos_site_id
_symmetry_equiv_pos_as_xyz
1 '-x, -y, -z'
2 'x, y, z'
loop_
_atom_type_symbol
_atom_type_oxidation_number
Ru0+ 0
P0+ 0
loop_
_atom_site_label
_atom_site_type_symbol
_atom_site_symmetry_multiplicity
_atom_site_Wyckoff_symbol
_atom_site_fract_x
_atom_site_fract_y
_atom_site_fract_z
_atom_site_B_iso_or_equiv
_atom_site_occupancy
_atom_site_attached_hydrogens
Ru1 Ru0+ 1 a 0 0 0 . 1. 0
Ru2 Ru0+ 2 i 0.32860(3) 0.62065(4) 0.05828(5) . 1. 0
P1 P0+ 2 i 0.0990(1) 0.6317(1) 0.4021(2) . 1. 0
P2 P0+ 2 i 0.2148(1) 0.8378(1) 0.8220(2) . 1. 0
P3 P0+ 2 i 0.5489(1) 0.5729(1) 0.7271(2) . 1. 0
P4 P0+ 2 i 0.5630(1) 0.9144(1) 0.3405(2) . 1. 0
P5 P0+ 2 i 0.1249(1) 0.2961(1) 0.7952(2) . 1. 0
P6 P0+ 2 i 0.7685(1) 0.8321(1) 0.6086(2) . 1. 0
loop_
_atom_site_aniso_label
_atom_site_aniso_type_symbol
_atom_site_aniso_U_11
_atom_site_aniso_U_22
_atom_site_aniso_U_33
_atom_site_aniso_U_12
_atom_site_aniso_U_13
_atom_site_aniso_U_23
Ru1 Ru0+ 0.0023(1) 0.0033(1) 0.0041(1) 0.0008(1) -.0004(1) 0.0014(1)
Ru2 Ru0+ 0.0026(1) 0.0036(1) 0.0039(2) 0.0010(1) -.0005(1) 0.0015(1)
P1 P0+ 0.0040(3) 0.0046(3) 0.0053(3) 0.0015(2) -.0002(2) 0.0018(2)
P2 P0+ 0.0037(3) 0.0048(3) 0.0053(3) 0.0015(2) -.0003(2) 0.0022(2)
P3 P0+ 0.0038(3) 0.0051(3) 0.0047(3) 0.0017(2) 0.0001(2) 0.0024(2)
P4 P0+ 0.0040(3) 0.0040(3) 0.0051(3) 0.0015(2) -.0002(2) 0.0016(2)
P5 P0+ 0.0035(3) 0.0050(3) 0.0053(3) 0.0014(2) -.0006(2) 0.0018(2)
P6 P0+ 0.0035(3) 0.0046(3) 0.0049(3) 0.0009(2) -.0007(2) 0.0016(2)
#End of TTdata_2492-ICSD