
#(C) 2018 by FIZ Karlsruhe - Leibniz Institute for Information Infrastructure.  All rights reserved.
data_68681-ICSD
_database_code_ICSD 68681
_audit_creation_date 1992-01-20
_audit_update_record 2007-08-01
_chemical_name_systematic 'Phosphorus oxide nitride'
_chemical_formula_structural 'P O N'
_chemical_formula_sum 'N1 O1 P1'
_chemical_name_structure_type PON
_exptl_crystal_density_diffrn 2.7
_publ_section_title

;
Preparation and time-of-flight neutron diffraction study of the
cristobalite-type PON phosphorus oxynitride
;
loop_
_citation_id
_citation_journal_full
_citation_year
_citation_journal_volume
_citation_page_first
_citation_page_last
_citation_journal_id_ASTM
primary 'Annales de Chimie (Cachan, France)' 1989 14 475 481 ANCPAC
loop_
_publ_author_name
'Boukbir, L.'
'Marchand, R.'
'Laurent, Y.'
'Bacher, P.'
'Roult, G.'
_cell_length_a 4.6266(1)
_cell_length_b 4.6266(1)
_cell_length_c 7.0037(3)
_cell_angle_alpha 90.
_cell_angle_beta 90.
_cell_angle_gamma 90.
_cell_volume 149.92
_cell_formula_units_Z 4
_symmetry_space_group_name_H-M 'P -4'
_symmetry_Int_Tables_number 81
_refine_ls_R_factor_all 0.025
loop_
_symmetry_equiv_pos_site_id
_symmetry_equiv_pos_as_xyz
1 '-y, x, -z'
2 'y, -x, -z'
3 '-x, -y, z'
4 'x, y, z'
loop_
_atom_type_symbol
_atom_type_oxidation_number
P5+ 5
O2- -2
N3- -3
O2- -2
N3- -3
loop_
_atom_site_label
_atom_site_type_symbol
_atom_site_symmetry_multiplicity
_atom_site_Wyckoff_symbol
_atom_site_fract_x
_atom_site_fract_y
_atom_site_fract_z
_atom_site_B_iso_or_equiv
_atom_site_occupancy
_atom_site_attached_hydrogens
P1 P5+ 1 a 0 0 0 1.24(31) 1. 0
P2 P5+ 1 d 0.5 0.5 0.5 0.45(25) 1. 0
P3 P5+ 2 g 0 0.5 0.252(3) 0.93(5) 1. 0
O1 O2- 4 h 0.1367(16) 0.2552(12) 0.1202(7) 1.19(14) 0.59(4) 0
N1 N3- 4 h 0.1367(16) 0.2552(12) 0.1202(7) 1.19(14) 0.41(4) 0
O2 O2- 4 h 0.3599(14) 0.2566(11) 0.6297(6) 0.94(11) 0.41(4) 0
N2 N3- 4 h 0.3599(14) 0.2566(11) 0.6297(6) 0.94(11) 0.59(4) 0
#End of TTdata_68681-ICSD