
#(C) 2017 by FIZ Karlsruhe - Leibniz Institute for Information Infrastructure.  All rights reserved.
data_150886-ICSD
_database_code_ICSD 150886
_audit_creation_date 2006-04-01
_chemical_name_systematic 'Copper oxide (1/2)'
_chemical_formula_structural 'Cu O2'
_chemical_formula_sum 'Cu1 O2'
_exptl_crystal_density_diffrn 1.66
_cell_measurement_temperature 5.
_publ_section_title

;
Low-temperature crystal and magnetic structures of the chain-ladder composite
material
;
loop_
_citation_id
_citation_journal_full
_citation_year
_citation_journal_volume
_citation_page_first
_citation_page_last
_citation_journal_id_ASTM
primary 'Physical Review, Serie 3. B - Condensed Matter (18,1978-)' 2000 62
11667 11676 PRBMDO
loop_
_publ_author_name
'Isobe, M.'
'Onoda, M.'
'Ohta, T.'
'Izumi, F.'
'Kimoto, K.'
'Takayama Muromachi, E.'
'Hewat, A.W.'
'Ohoyama, K.'
_cell_length_a 11.2565(2)
_cell_length_b 12.3820(2)
_cell_length_c 2.73607(6)
_cell_angle_alpha 90.
_cell_angle_beta 90.
_cell_angle_gamma 90.
_cell_volume 381.35
_cell_formula_units_Z 4
_symmetry_space_group_name_H-M 'F 2 2 2'
_symmetry_Int_Tables_number 22
_refine_ls_R_factor_all 0.0671
loop_
_symmetry_equiv_pos_site_id
_symmetry_equiv_pos_as_xyz
1 '-x, y, -z'
2 'x, -y, -z'
3 '-x, -y, z'
4 'x, y, z'
5 '-x, y+1/2, -z+1/2'
6 'x, -y+1/2, -z+1/2'
7 '-x, -y+1/2, z+1/2'
8 'x, y+1/2, z+1/2'
9 '-x+1/2, y, -z+1/2'
10 'x+1/2, -y, -z+1/2'
11 '-x+1/2, -y, z+1/2'
12 'x+1/2, y, z+1/2'
13 '-x+1/2, y+1/2, -z'
14 'x+1/2, -y+1/2, -z'
15 '-x+1/2, -y+1/2, z'
16 'x+1/2, y+1/2, z'
loop_
_atom_type_symbol
_atom_type_oxidation_number
Cu0+ 0
O0+ 0
loop_
_atom_site_label
_atom_site_type_symbol
_atom_site_symmetry_multiplicity
_atom_site_Wyckoff_symbol
_atom_site_fract_x
_atom_site_fract_y
_atom_site_fract_z
_atom_site_B_iso_or_equiv
_atom_site_occupancy
_atom_site_attached_hydrogens
Cu1 Cu0+ 4 c 0.25 0.25 0.25 0.52(7) 1. 0
O1 O0+ 8 i 0.25 0.636 0.25 0.81(8) 1. 0
#End of TTdata_150886-ICSD