
#(C) 2018 by FIZ Karlsruhe - Leibniz Institute for Information Infrastructure.  All rights reserved.
data_58168-ICSD
_database_code_ICSD 58168
_audit_creation_date 2004-04-01
_audit_update_record 2013-02-01
_chemical_name_systematic 'Aluminum strontium (7/8)'
_chemical_formula_structural 'Al7 Sr8'
_chemical_formula_sum 'Al7 Sr8'
_chemical_name_structure_type Al7Sr8
_exptl_crystal_density_diffrn 2.85
_publ_section_title 'Structures of Ba8 Ga7, Sr8 Ga7 and Sr8 Al7'
loop_
_citation_id
_citation_journal_full
_citation_year
_citation_journal_volume
_citation_page_first
_citation_page_last
_citation_journal_id_ASTM
primary 'Acta Crystallographica, Section C: Crystal Structure Communications'
1983 39 943 946 ACSCEE
loop_
_publ_author_name
'Fornasini, M.L.'
_cell_length_a 12.753(5)
_cell_length_b 12.753
_cell_length_c 12.753
_cell_angle_alpha 90.
_cell_angle_beta 90.
_cell_angle_gamma 90.
_cell_volume 2074.14
_cell_formula_units_Z 4
_symmetry_space_group_name_H-M 'P 21 3'
_symmetry_Int_Tables_number 198
_refine_ls_R_factor_all 0.031
loop_
_symmetry_equiv_pos_site_id
_symmetry_equiv_pos_as_xyz
1 '-z+1/2, -x, y+1/2'
2 '-y+1/2, -z, x+1/2'
3 '-x+1/2, -y, z+1/2'
4 '-z, x+1/2, -y+1/2'
5 '-y, z+1/2, -x+1/2'
6 '-x, y+1/2, -z+1/2'
7 'z+1/2, -x+1/2, -y'
8 'y+1/2, -z+1/2, -x'
9 'x+1/2, -y+1/2, -z'
10 'z, x, y'
11 'y, z, x'
12 'x, y, z'
loop_
_atom_type_symbol
_atom_type_oxidation_number
Al0+ 0
Sr0+ 0
loop_
_atom_site_label
_atom_site_type_symbol
_atom_site_symmetry_multiplicity
_atom_site_Wyckoff_symbol
_atom_site_fract_x
_atom_site_fract_y
_atom_site_fract_z
_atom_site_B_iso_or_equiv
_atom_site_occupancy
_atom_site_attached_hydrogens
Al1 Al0+ 4 a 0.4301(3) 0.4301 0.4301 0.0021(2) 1. 0
Al2 Al0+ 12 b 0.7554(3) 0.1940(4) 0.5749(4) 0.0021(3) 1. 0
Al3 Al0+ 12 b 0.7504(3) 0.6853(4) 0.5803(4) 0.0018(3) 1. 0
Sr1 Sr0+ 4 a 0.8148(1) 0.8148 0.8148 0.0020(1) 1. 0
Sr2 Sr0+ 4 a 0.1849(1) 0.1849 0.1849 0.0018(1) 1. 0
Sr3 Sr0+ 12 b 0.8056(2) 0.5594(1) 0.0035(1) 0.0019(1) 1. 0
Sr4 Sr0+ 12 b 0.5204(1) 0.6997(1) 0.9388(1) 0.0020(1) 1. 0
#End of TTdata_58168-ICSD