
#(C) 2017 by FIZ Karlsruhe - Leibniz Institute for Information Infrastructure.  All rights reserved.
data_280624-ICSD
_database_code_ICSD 280624
_audit_creation_date 2002-04-01
_audit_update_record 2007-08-01
_chemical_name_systematic 'Silicon oxide (32/64)'
_chemical_formula_structural 'Si32 O64'
_chemical_formula_sum 'O64 Si32'
_chemical_name_mineral 'Zeolite GUS-1'
_exptl_crystal_density_diffrn 1.92
_publ_section_title
'GUS-1: a mordenite-like molecular sieve with the 12-ring channel of ZSM-12'
loop_
_citation_id
_citation_journal_full
_citation_year
_citation_journal_volume
_citation_page_first
_citation_page_last
_citation_journal_id_ASTM
primary 'ChemComm - Chemical Communications' 2000 2000 2363 2364 CHCOFS
loop_
_publ_author_name
'Plevert, J.'
'Kubota, Y.'
'Honda, T.'
'Okubo, T.'
'Sugi, Y.'
_cell_length_a 16.42059(40)
_cell_length_b 20.05399(40)
_cell_length_c 5.0464(1)
_cell_angle_alpha 90.
_cell_angle_beta 90.
_cell_angle_gamma 90.
_cell_volume 1661.77
_cell_formula_units_Z 1
_symmetry_space_group_name_H-M 'C 2 2 2'
_symmetry_Int_Tables_number 21
_refine_ls_R_factor_all 0.055
loop_
_symmetry_equiv_pos_site_id
_symmetry_equiv_pos_as_xyz
1 '-x, y, -z'
2 'x, -y, -z'
3 '-x, -y, z'
4 'x, y, z'
5 '-x+1/2, y+1/2, -z'
6 'x+1/2, -y+1/2, -z'
7 '-x+1/2, -y+1/2, z'
8 'x+1/2, y+1/2, z'
loop_
_atom_type_symbol
_atom_type_oxidation_number
Si4+ 4
O2- -2
loop_
_atom_site_label
_atom_site_type_symbol
_atom_site_symmetry_multiplicity
_atom_site_Wyckoff_symbol
_atom_site_fract_x
_atom_site_fract_y
_atom_site_fract_z
_atom_site_B_iso_or_equiv
_atom_site_occupancy
_atom_site_attached_hydrogens
Si1 Si4+ 8 l 0.3074(17) 0.1879(18) 0.478(8) 0.025 1. 0
Si2 Si4+ 8 l 0.1818(21) 0.0767(13) 0.527(11) 0.025 1. 0
Si3 Si4+ 8 l 0.0937(16) 0.1222(15) 0.016(13) 0.025 1. 0
Si4 Si4+ 8 l 0.0964(17) 0.2819(15) -.002(14) 0.025 1. 0
O1 O2- 8 l 0.3549(30) 0.1874(29) 0.754(15) 0.03 1. 0
O2 O2- 8 l 0.384(4) 0.2092(25) 0.307(14) 0.03 1. 0
O3 O2- 4 k 0.25 0.25 0.522(24) 0.03 1. 0
O4 O2- 8 l 0.2644(26) 0.1170(21) 0.477(16) 0.03 1. 0
O5 O2- 8 l 0.1537(30) 0.0785(24) 0.834(11) 0.03 1. 0
O6 O2- 4 f 0.212(4) 0 0.5 0.03 1. 0
O7 O2- 8 l 0.1151(31) 0.1023(21) 0.317(13) 0.03 1. 0
O8 O2- 4 g 0 0.1006(35) 0 0.03 1. 0
O9 O2- 8 l 0.1021(18) 0.2021(24) -.013(11) 0.03 1. 0
O10 O2- 4 g 0 0.297(5) 0 0.03 1. 0
#End of TTdata_280624-ICSD