
#(C) 2017 by FIZ Karlsruhe - Leibniz Institute for Information Infrastructure, and the U.S. Secretary of
#Commerce on behalf of the United States.  All rights reserved.
data_638690-ICSD
_database_code_ICSD 638690
_audit_creation_date 2013-08-01
_chemical_name_systematic 'Hafnium nickel (7/10)'
_chemical_formula_structural 'Hf7 Ni10'
_chemical_formula_sum 'Hf7 Ni10'
_chemical_name_structure_type Zr7Ni10
_exptl_crystal_density_diffrn 12.
_publ_section_title
'Structures of the intermediate phases Ni10 Zr7 and Ni10 Hf7'
_publ_section_comment 'Cell and Type only determined'
loop_
_citation_id
_citation_journal_full
_citation_year
_citation_journal_volume
_citation_page_first
_citation_page_last
_citation_journal_id_ASTM
primary 'Acta Crystallographica (1,1948-23,1967)' 1962 15 894 903 ACCRA9
loop_
_publ_author_name
'Kirkpatrick, M.E.'
'Smith, J.F.'
'Larsen, W.L.'
_cell_length_a 9.126(5)
_cell_length_b 9.078(8)
_cell_length_c 12.275(4)
_cell_angle_alpha 90.
_cell_angle_beta 90.
_cell_angle_gamma 90.
_cell_volume 1016.93
_cell_formula_units_Z 4
_symmetry_space_group_name_H-M 'A b a 2'
_symmetry_Int_Tables_number 41
loop_
_symmetry_equiv_pos_site_id
_symmetry_equiv_pos_as_xyz
1 'x+1/2, -y+1/2, z'
2 '-x+1/2, y+1/2, z'
3 '-x, -y, z'
4 'x, y, z'
5 'x+1/2, -y, z+1/2'
6 '-x+1/2, y, z+1/2'
7 '-x, -y+1/2, z+1/2'
8 'x, y+1/2, z+1/2'
loop_
_atom_type_symbol
_atom_type_oxidation_number
Ni0+ 0
Hf0+ 0
loop_
_atom_site_label
_atom_site_type_symbol
_atom_site_symmetry_multiplicity
_atom_site_Wyckoff_symbol
_atom_site_fract_x
_atom_site_fract_y
_atom_site_fract_z
_atom_site_B_iso_or_equiv
_atom_site_occupancy
_atom_site_attached_hydrogens
Ni1 Ni0+ 8 b 0.21 0.001 0.758 . 1. 0
Ni2 Ni0+ 8 b 0.292 0.008 0.596 . 1. 0
Ni3 Ni0+ 8 b 0.003 0.292 0.598 . 1. 0
Ni4 Ni0+ 8 b 0.012 0.299 0.308 . 1. 0
Ni5 Ni0+ 8 b 0.106 0.109 0.45 . 1. 0
Hf1 Hf0+ 4 a 0 0 0.954 . 1. 0
Hf2 Hf0+ 4 a 0 0 0.643 . 1. 0
Hf3 Hf0+ 4 a 0 0 0.257 . 1. 0
Hf4 Hf0+ 8 b 0.246 0.256 0.702 . 1. 0
Hf5 Hf0+ 8 b 0.313 0.311 0.453 . 1. 0
#End of TTdata_638690-ICSD