
#(C) 2017 by FIZ Karlsruhe - Leibniz Institute for Information Infrastructure.  All rights reserved.
data_102424-ICSD
_database_code_ICSD 102424
_audit_creation_date 2004-10-01
_audit_update_record 2017-08-01
_chemical_name_systematic 'Cobalt gallium (1/3)'
_chemical_formula_structural 'Co Ga3'
_chemical_formula_sum 'Co1 Ga3'
_chemical_name_structure_type CoGa3
_exptl_crystal_density_diffrn 7.26
_publ_section_title

;
Zum Aufbau der Systeme Kobalt-Gallium, Palladium-Gallium, Palladium- Zinn und
verwandter Legierungen
;
loop_
_citation_id
_citation_journal_full
_citation_year
_citation_journal_volume
_citation_page_first
_citation_page_last
_citation_journal_id_ASTM
primary 'Zeitschrift fuer Metallkunde' 1959 50 534 540 ZEMTAE
loop_
_publ_author_name
'Schubert, Konrad'
'Lukas, Hans Leo'
'Meissner, Hans-Georg'
'Bhan, Suray'
_cell_length_a 6.26
_cell_length_b 6.26
_cell_length_c 6.26
_cell_angle_alpha 90.
_cell_angle_beta 90.
_cell_angle_gamma 90.
_cell_volume 245.31
_cell_formula_units_Z 4
_symmetry_space_group_name_H-M 'P -4 n 2'
_symmetry_Int_Tables_number 118
loop_
_symmetry_equiv_pos_site_id
_symmetry_equiv_pos_as_xyz
1 '-y+1/2, -x+1/2, -z+1/2'
2 'y, -x, -z'
3 'x+1/2, -y+1/2, z+1/2'
4 '-x, -y, z'
5 'y+1/2, x+1/2, -z+1/2'
6 '-y, x, -z'
7 '-x+1/2, y+1/2, z+1/2'
8 'x, y, z'
loop_
_atom_type_symbol
_atom_type_oxidation_number
Co0+ 0
Ga0+ 0
loop_
_atom_site_label
_atom_site_type_symbol
_atom_site_symmetry_multiplicity
_atom_site_Wyckoff_symbol
_atom_site_fract_x
_atom_site_fract_y
_atom_site_fract_z
_atom_site_B_iso_or_equiv
_atom_site_occupancy
_atom_site_attached_hydrogens
Co1 Co0+ 4 f 0.353 0.147 0.25 . 1. 0
Ga1 Ga0+ 4 e 0 0 0.25 . 1. 0
Ga2 Ga0+ 8 i 0.153 0.347 0 . 1. 0
#End of TTdata_102424-ICSD