
#(C) 2017 by FIZ Karlsruhe - Leibniz Institute for Information Infrastructure.  All rights reserved.
data_109020-ICSD
_database_code_ICSD 109020
_audit_creation_date 2007-04-01
_chemical_name_systematic 'Cesium - III, HP'
_chemical_formula_structural Cs
_chemical_formula_sum Cs1
_exptl_crystal_density_diffrn 4.4
_cell_measurement_pressure 4300000.
_publ_section_title 'Complex crystal structure of cesium-III'
loop_
_citation_id
_citation_journal_full
_citation_year
_citation_journal_volume
_citation_page_first
_citation_page_last
_citation_journal_id_ASTM
primary 'Physical Review Letters' 2001 87 255502-1 255502-4 PRLTAO
loop_
_publ_author_name
'McMahon, M.I.'
'Nelmes, R.J.'
'Rekhi, S.'
_cell_length_a 9.2718(1)
_cell_length_b 13.3013(3)
_cell_length_c 34.2025(7)
_cell_angle_alpha 90.
_cell_angle_beta 90.
_cell_angle_gamma 90.
_cell_volume 4218.09
_cell_formula_units_Z 84
_symmetry_space_group_name_H-M 'C 2 2 21'
_symmetry_Int_Tables_number 20
loop_
_symmetry_equiv_pos_site_id
_symmetry_equiv_pos_as_xyz
1 '-x, y, -z+1/2'
2 '-x, -y, z+1/2'
3 'x, -y, -z'
4 'x, y, z'
5 '-x+1/2, y+1/2, -z+1/2'
6 '-x+1/2, -y+1/2, z+1/2'
7 'x+1/2, -y+1/2, -z'
8 'x+1/2, y+1/2, z'
loop_
_atom_type_symbol
_atom_type_oxidation_number
Cs0+ 0
loop_
_atom_site_label
_atom_site_type_symbol
_atom_site_symmetry_multiplicity
_atom_site_Wyckoff_symbol
_atom_site_fract_x
_atom_site_fract_y
_atom_site_fract_z
_atom_site_B_iso_or_equiv
_atom_site_occupancy
_atom_site_attached_hydrogens
Cs1 Cs0+ 4 b 0 0.329(1) 0.25 . 1. 0
Cs2 Cs0+ 8 c 0.209(1) 0.603(1) 0.2589(2) . 1. 0
Cs3 Cs0+ 8 c 0.112(1) 0.873(1) 0.2935(3) . 1. 0
Cs4 Cs0+ 8 c 0.965(1) 0.655(1) 0.3552(3) . 1. 0
Cs5 Cs0+ 8 c 0.550(1) 0.637(1) 0.3374(2) . 1. 0
Cs6 Cs0+ 8 c 0.343(2) 0.874(1) 0.3830(3) . 1. 0
Cs7 Cs0+ 8 c 0.7381(9) 0.916(1) 0.3507(3) . 1. 0
Cs8 Cs0+ 8 c 0.7231(9) 0.5851(8) 0.4526(2) . 1. 0
Cs9 Cs0+ 8 c 0.076(1) 0.370(1) 0.4746(2) . 1. 0
Cs10 Cs0+ 8 c 0.314(1) 0.620(1) 0.4329(2) . 1. 0
Cs11 Cs0+ 8 c 0.479(1) 0.3320(9) 0.4482(3) . 1. 0
#End of TTdata_109020-ICSD