
#(C) 2017 by FIZ Karlsruhe - Leibniz Institute for Information Infrastructure.  All rights reserved.
data_58806-ICSD
_database_code_ICSD 58806
_audit_creation_date 2004-04-01
_audit_update_record 2011-02-01
_chemical_name_systematic 'Bismuth manganese (1/1) - HT'
_chemical_formula_structural 'Bi Mn'
_chemical_formula_sum 'Bi1 Mn1'
_chemical_name_structure_type MnBi
_exptl_crystal_density_diffrn 9.03
_publ_section_title

;
Properties of Mn Bi compounds partially substituted with Cu, Zn, Ti, Sb, and
Te. I. Formation of mixed phases and crystal structures
;
loop_
_citation_id
_citation_journal_full
_citation_year
_citation_journal_volume
_citation_page_first
_citation_page_last
_citation_journal_id_ASTM
primary 'Physica Status Solidi A - Applications and Materials' 1976 34 553 564
PSSABA
loop_
_publ_author_name
'Goebel, H.'
'Wolfgang, E.'
'Harms, H.'
_cell_length_a 4.34
_cell_length_b 7.52
_cell_length_c 5.945
_cell_angle_alpha 90.
_cell_angle_beta 90.
_cell_angle_gamma 90.
_cell_volume 194.03
_cell_formula_units_Z 4
_symmetry_space_group_name_H-M 'P 2 2 21'
_symmetry_Int_Tables_number 17
loop_
_symmetry_equiv_pos_site_id
_symmetry_equiv_pos_as_xyz
1 '-x, y, -z+1/2'
2 '-x, -y, z+1/2'
3 'x, -y, -z'
4 'x, y, z'
loop_
_atom_type_symbol
_atom_type_oxidation_number
Bi0+ 0
Mn0+ 0
loop_
_atom_site_label
_atom_site_type_symbol
_atom_site_symmetry_multiplicity
_atom_site_Wyckoff_symbol
_atom_site_fract_x
_atom_site_fract_y
_atom_site_fract_z
_atom_site_B_iso_or_equiv
_atom_site_occupancy
_atom_site_attached_hydrogens
Bi1 Bi0+ 2 c 0 0.333 0.25 . 1. 0
Bi2 Bi0+ 2 d 0.5 0.833 0.25 . 1. 0
Mn1 Mn0+ 2 a 0 0 0 . 1. 0
Mn2 Mn0+ 2 b 0.5 0.5 0 . 0.38 0
Mn3 Mn0+ 2 d 0.5 0.167 0.25 . 0.62 0
#End of TTdata_58806-ICSD