
#(C) 2017 by FIZ Karlsruhe - Leibniz Institute for Information Infrastructure.  All rights reserved.
data_14318-ICSD
_database_code_ICSD 14318
_audit_creation_date 1986-09-22
_audit_update_record 2007-08-01
_chemical_name_systematic 'Dihydrogen oxide - Ice V'
_chemical_formula_structural 'H2 O'
_chemical_formula_sum 'H2 O1'
_chemical_name_mineral 'Ice V'
_exptl_crystal_density_diffrn 1.23
_cell_measurement_temperature 98.
_publ_section_title 'Structure of Ice V'
loop_
_citation_id
_citation_journal_full
_citation_year
_citation_journal_volume
_citation_page_first
_citation_page_last
_citation_journal_id_ASTM
primary 'Acta Crystallographica (1,1948-23,1967)' 1967 22 706 715 ACCRA9
loop_
_publ_author_name
'Kamb, B.'
'Prakash, A.'
'Knobler, C.'
_cell_length_a 9.22(2)
_cell_length_b 7.54(1)
_cell_length_c 10.35(2)
_cell_angle_alpha 90.
_cell_angle_beta 109.2(2)
_cell_angle_gamma 90.
_cell_volume 679.5
_cell_formula_units_Z 28
_symmetry_space_group_name_H-M 'A 1 2/a 1'
_symmetry_Int_Tables_number 15
_refine_ls_R_factor_all 0.099
loop_
_symmetry_equiv_pos_site_id
_symmetry_equiv_pos_as_xyz
1 '-x+1/2, y, -z'
2 '-x, -y, -z'
3 'x+1/2, -y, z'
4 'x, y, z'
5 '-x+1/2, y+1/2, -z+1/2'
6 '-x, -y+1/2, -z+1/2'
7 'x+1/2, -y+1/2, z+1/2'
8 'x, y+1/2, z+1/2'
loop_
_atom_type_symbol
_atom_type_oxidation_number
O2- -2
H1+ 1
loop_
_atom_site_label
_atom_site_type_symbol
_atom_site_symmetry_multiplicity
_atom_site_Wyckoff_symbol
_atom_site_fract_x
_atom_site_fract_y
_atom_site_fract_z
_atom_site_B_iso_or_equiv
_atom_site_occupancy
_atom_site_attached_hydrogens
O1 O2- 4 e 0.25 -.1847(8) 0 . 1. 0
O2 O2- 8 f 0.4629(4) 0.0565(5) 0.1544(4) . 1. 0
O3 O2- 8 f 0.2751(4) -.3475(6) 0.2477(4) . 1. 0
O4 O2- 8 f 0.3993(4) 0.3596(5) -.0146(4) . 1. 0
H1 H1+ 8 f 0.33 -.1 0.06 2. 0.5 0
H2 H1+ 8 f 0.26 -.24 0.09 2. 0.5 0
H3 H1+ 8 f 0.39 -.03 0.1 2. 0.5 0
H4 H1+ 8 f 0.38 0.09 0.19 2. 0.5 0
H5 H1+ 8 f 0.44 0.17 0.09 2. 0.5 0
H6 H1+ 8 f 0.56 -.02 0.19 2. 0.5 0
H7 H1+ 8 f 0.27 -.29 0.16 2. 0.5 0
H8 H1+ 8 f 0.37 -.42 0.28 2. 0.5 0
H9 H1+ 8 f 0.32 -.27 0.33 2. 0.5 0
H10 H1+ 8 f 0.19 -.38 0.28 2. 0.5 0
H11 H1+ 8 f 0.42 0.25 0.05 2. 0.5 0
H12 H1+ 8 f 0.29 0.36 0 2. 0.5 0
H13 H1+ 8 f 0.36 0.29 -.1 2. 0.5 0
H14 H1+ 8 f 0.47 0.46 0 2. 0.5 0
loop_
_atom_site_aniso_label
_atom_site_aniso_type_symbol
_atom_site_aniso_beta_11
_atom_site_aniso_beta_22
_atom_site_aniso_beta_33
_atom_site_aniso_beta_12
_atom_site_aniso_beta_13
_atom_site_aniso_beta_23
O1 O2- 0.0092 0.0119 0.004 0 0.0052 0
O2 O2- 0.0072 0.008 0.0067 0.0007 0.0026 -.0004
O3 O2- 0.0083 0.0081 0.0053 -.0004 0.0024 0.0002
O4 O2- 0.0084 0.0077 0.006 -.0006 0.0025 -.0003
#End of TTdata_14318-ICSD