
#(C) 2017 by FIZ Karlsruhe - Leibniz Institute for Information Infrastructure.  All rights reserved.
data_26563-ICSD
_database_code_ICSD 26563
_audit_creation_date 1981-12-31
_audit_update_record 2012-02-01
_chemical_name_systematic 'Silver phosphide (3/11)'
_chemical_formula_structural 'Ag3 P11'
_chemical_formula_sum 'Ag3 P11'
_exptl_crystal_density_diffrn 3.88
_publ_section_title

;
Preparation and crystal structure of trisilver undecaphosphide, Ag3 P11, an
unusual defect tetrahedral compound
;
loop_
_citation_id
_citation_journal_full
_citation_year
_citation_journal_volume
_citation_page_first
_citation_page_last
_citation_journal_id_ASTM
primary 'Inorganic Chemistry' 1981 20 833 839 INOCAJ
loop_
_publ_author_name
'Moeller, M.H.'
'Jeitschko, W.'
_cell_length_a 12.999(3)
_cell_length_b 7.555(2)
_cell_length_c 6.612(2)
_cell_angle_alpha 90.
_cell_angle_beta 118.84(4)
_cell_angle_gamma 90.
_cell_volume 568.81
_cell_formula_units_Z 2
_symmetry_space_group_name_H-M 'C 1 m 1'
_symmetry_Int_Tables_number 8
_refine_ls_R_factor_all 0.059
loop_
_symmetry_equiv_pos_site_id
_symmetry_equiv_pos_as_xyz
1 'x, -y, z'
2 'x, y, z'
3 'x+1/2, -y+1/2, z'
4 'x+1/2, y+1/2, z'
loop_
_atom_type_symbol
_atom_type_oxidation_number
Ag0+ 0
P0+ 0
loop_
_atom_site_label
_atom_site_type_symbol
_atom_site_symmetry_multiplicity
_atom_site_Wyckoff_symbol
_atom_site_fract_x
_atom_site_fract_y
_atom_site_fract_z
_atom_site_B_iso_or_equiv
_atom_site_occupancy
_atom_site_attached_hydrogens
Ag1 Ag0+ 2 a 0 0 0 1.49(5) 1. 0
Ag2 Ag0+ 2 a 0.4108(2) 0 0.1956(5) 0.80(4) 1. 0
Ag3 Ag0+ 2 a 0.7096(3) 0 0.9773(6) 1.44(5) 1. 0
P1 P0+ 4 b 0.4807(5) 0.2529(7) 0.4696(10) 0.41(8) 1. 0
P2 P0+ 4 b 0.2363(4) 0.1504(7) 0.4926(9) 0.68(8) 1. 0
P3 P0+ 4 b 0.1676(5) 0.2230(6) 0.7282(9) 0.54(7) 1. 0
P4 P0+ 4 b 0.4193(5) 0.2267(7) 0.7327(9) 0.59(9) 1. 0
P5 P0+ 2 a 0.9185(7) 0 0.2767(14) 0.66(13) 1. 0
P6 P0+ 2 a 0.5085(7) 0 0.9490(14) 0.52(12) 1. 0
P7 P0+ 2 a 0.1888(7) 0 0.9548(13) 0.75(12) 1. 0
#End of TTdata_26563-ICSD