
#(C) 2017 by FIZ Karlsruhe - Leibniz Institute for Information Infrastructure.  All rights reserved.
data_42422-ICSD
_database_code_ICSD 42422
_audit_creation_date 2000-07-15
_chemical_name_systematic 'Tantalum - beta, substructure'
_chemical_formula_structural Ta0.98
_chemical_formula_sum Ta0.98
_exptl_crystal_density_diffrn 15.9
_publ_section_title 'An X-ray study of beta-tantalum'
loop_
_citation_id
_citation_journal_full
_citation_year
_citation_journal_volume
_citation_page_first
_citation_page_last
_citation_journal_id_ASTM
primary 'Journal of Applied Crystallography' 1973 6 217 224 JACGAR
loop_
_publ_author_name
'Burbank, R.D.'
_cell_length_a 2.831
_cell_length_b 2.831
_cell_length_c 5.337
_cell_angle_alpha 90.
_cell_angle_beta 90.
_cell_angle_gamma 120.
_cell_volume 37.04
_cell_formula_units_Z 2
_symmetry_space_group_name_H-M 'P 63/m'
_symmetry_Int_Tables_number 176
_refine_ls_R_factor_all 0.163
loop_
_symmetry_equiv_pos_site_id
_symmetry_equiv_pos_as_xyz
1 '-x+y, -x, -z+1/2'
2 '-y, x-y, -z+1/2'
3 'x, y, -z+1/2'
4 'x-y, x, -z'
5 'y, -x+y, -z'
6 '-x, -y, -z'
7 'x-y, x, z+1/2'
8 'y, -x+y, z+1/2'
9 '-x, -y, z+1/2'
10 '-x+y, -x, z'
11 '-y, x-y, z'
12 'x, y, z'
loop_
_atom_type_symbol
_atom_type_oxidation_number
Ta0+ 0
loop_
_atom_site_label
_atom_site_type_symbol
_atom_site_symmetry_multiplicity
_atom_site_Wyckoff_symbol
_atom_site_fract_x
_atom_site_fract_y
_atom_site_fract_z
_atom_site_B_iso_or_equiv
_atom_site_occupancy
_atom_site_attached_hydrogens
Ta1 Ta0+ 12 i 0.555(12) -.013(12) 0.632(3) . 0.0833 0
Ta2 Ta0+ 12 i 0.788(13) 0.567(14) 0.082(4) . 0.08 0
#End of TTdata_42422-ICSD