
#(C) 2017 by FIZ Karlsruhe - Leibniz Institute for Information Infrastructure.  All rights reserved.
data_151434-ICSD
_database_code_ICSD 151434
_audit_creation_date 2006-10-01
_audit_update_record 2007-04-01
_chemical_name_systematic 'Iodine - V'
_chemical_formula_structural I
_chemical_formula_sum I1
_exptl_crystal_density_diffrn 8.64
_cell_measurement_pressure 24600000.
_publ_section_title
'Incommensurately modulated phase of iodine under high pressure'
loop_
_citation_id
_citation_journal_full
_citation_year
_citation_journal_volume
_citation_page_first
_citation_page_last
_citation_journal_id_ASTM
primary Ferroelectrics 2004 305 103 106 FEROA8
loop_
_publ_author_name
'Takemura, K.'
'Sato, K.'
'Fujihisa, H.'
'Onoda, M.'
_cell_length_a 4.2280(6)
_cell_length_b 4.2039(6)
_cell_length_c 5.4868(8)
_cell_angle_alpha 90.
_cell_angle_beta 90.
_cell_angle_gamma 90.
_cell_volume 97.52
_cell_formula_units_Z 4
_symmetry_space_group_name_H-M 'F m m 2'
_symmetry_Int_Tables_number 42
loop_
_symmetry_equiv_pos_site_id
_symmetry_equiv_pos_as_xyz
1 'x, -y, z'
2 '-x, y, z'
3 '-x, -y, z'
4 'x, y, z'
5 'x, -y+1/2, z+1/2'
6 '-x, y+1/2, z+1/2'
7 '-x, -y+1/2, z+1/2'
8 'x, y+1/2, z+1/2'
9 'x+1/2, -y, z+1/2'
10 '-x+1/2, y, z+1/2'
11 '-x+1/2, -y, z+1/2'
12 'x+1/2, y, z+1/2'
13 'x+1/2, -y+1/2, z'
14 '-x+1/2, y+1/2, z'
15 '-x+1/2, -y+1/2, z'
16 'x+1/2, y+1/2, z'
loop_
_atom_type_symbol
_atom_type_oxidation_number
I0+ 0
loop_
_atom_site_label
_atom_site_type_symbol
_atom_site_symmetry_multiplicity
_atom_site_Wyckoff_symbol
_atom_site_fract_x
_atom_site_fract_y
_atom_site_fract_z
_atom_site_B_iso_or_equiv
_atom_site_occupancy
_atom_site_attached_hydrogens
I1 I0+ 4 a 0 0 0 0.4(1) 1. 0
#End of TTdata_151434-ICSD