
#(C) 2017 by FIZ Karlsruhe - Leibniz Institute for Information Infrastructure.  All rights reserved.
data_31683-ICSD
_database_code_ICSD 31683
_audit_creation_date 1980-01-01
_audit_update_record 2002-04-01
_chemical_name_systematic 'Dihydrogen oxide'
_chemical_formula_structural 'H2 O'
_chemical_formula_sum 'H2 O1'
_chemical_name_mineral 'Ice II'
_exptl_crystal_density_diffrn 1.23
_cell_measurement_temperature 118.
_publ_section_title 'The structure of ice II'
loop_
_citation_id
_citation_journal_full
_citation_year
_citation_journal_volume
_citation_page_first
_citation_page_last
_citation_journal_id_ASTM
primary 'Journal of Chemical Physics' 1936 4 60 64 JCPSA6
loop_
_publ_author_name
'McFarlan, R.L.'
_cell_length_a 7.8
_cell_length_b 4.5
_cell_length_c 5.56
_cell_angle_alpha 90.
_cell_angle_beta 90.
_cell_angle_gamma 90.
_cell_volume 195.16
_cell_formula_units_Z 8
_symmetry_space_group_name_H-M 'C 2 2 21'
_symmetry_Int_Tables_number 20
loop_
_symmetry_equiv_pos_site_id
_symmetry_equiv_pos_as_xyz
1 '-x, y, -z+1/2'
2 '-x, -y, z+1/2'
3 'x, -y, -z'
4 'x, y, z'
5 '-x+1/2, y+1/2, -z+1/2'
6 '-x+1/2, -y+1/2, z+1/2'
7 'x+1/2, -y+1/2, -z'
8 'x+1/2, y+1/2, z'
loop_
_atom_type_symbol
_atom_type_oxidation_number
O2- -2
H1+ 1
loop_
_atom_site_label
_atom_site_type_symbol
_atom_site_symmetry_multiplicity
_atom_site_Wyckoff_symbol
_atom_site_fract_x
_atom_site_fract_y
_atom_site_fract_z
_atom_site_B_iso_or_equiv
_atom_site_occupancy
_atom_site_attached_hydrogens
O1 O2- 8 c 0.167 0.205 0.178 . 1. 0
H1 H1+ 4 a 0.167 0 0 . 1. 0
H2 H1+ 4 b 0 0.25 0.25 . 1. 0
H3 H1+ 8 c 0.25 0.455 0.25 . 1. 0
#End of TTdata_31683-ICSD