
#(C) 2017 by FIZ Karlsruhe - Leibniz Institute for Information Infrastructure.  All rights reserved.
data_58000-ICSD
_database_code_ICSD 58000
_audit_creation_date 2003-10-01
_audit_update_record 2014-08-01
_chemical_name_systematic 'Aluminium molybdenum (4/1)'
_chemical_formula_structural 'Al4 Mo'
_chemical_formula_sum 'Al4 Mo1'
_chemical_name_structure_type Al4Mo
_exptl_crystal_density_diffrn 4.24
_publ_section_title
'The refinement of the crystal structure of the intermetallic phase Al4 Mo'
loop_
_citation_id
_citation_journal_full
_citation_year
_citation_journal_volume
_citation_page_first
_citation_page_last
_citation_journal_id_ASTM
primary 'Acta Crystallographica (1,1948-23,1967)' 1964 17 918 923 ACCRA9
loop_
_publ_author_name
'Leake, J.A.'
_cell_length_a 5.255(5)
_cell_length_b 17.768(5)
_cell_length_c 5.225(5)
_cell_angle_alpha 90.
_cell_angle_beta 100.88(6)
_cell_angle_gamma 90.
_cell_volume 479.09
_cell_formula_units_Z 6
_symmetry_space_group_name_H-M 'C 1 m 1'
_symmetry_Int_Tables_number 8
_refine_ls_R_factor_all 0.063
loop_
_symmetry_equiv_pos_site_id
_symmetry_equiv_pos_as_xyz
1 'x, -y, z'
2 'x, y, z'
3 'x+1/2, -y+1/2, z'
4 'x+1/2, y+1/2, z'
loop_
_atom_type_symbol
_atom_type_oxidation_number
Al0+ 0
Mo0+ 0
loop_
_atom_site_label
_atom_site_type_symbol
_atom_site_symmetry_multiplicity
_atom_site_Wyckoff_symbol
_atom_site_fract_x
_atom_site_fract_y
_atom_site_fract_z
_atom_site_B_iso_or_equiv
_atom_site_occupancy
_atom_site_attached_hydrogens
Al1 Al0+ 2 a 0.1611(12) 0 0.5103(18) 0.75 1. 0
Al2 Al0+ 2 a 0.5117(15) 0 0.1481(20) 0.75 1. 0
Al3 Al0+ 4 b 0.6753(13) 0.0767(4) 0.6951(18) 0.75 1. 0
Al4 Al0+ 4 b 0.8322(13) 0.1180(4) 0.2246(18) 0.75 1. 0
Al5 Al0+ 4 b 0.2067(16) 0.1218(4) 0.8267(20) 0.75 1. 0
Al6 Al0+ 4 b 0.7087(15) 0.2351(4) 0.6057(19) 0.75 1. 0
Al7 Al0+ 4 b 0.5414(13) 0.2497(4) 0.0818(20) 0.75 1. 0
Mo1 Mo0+ 2 a 0 0 0 0.4 1. 0
Mo2 Mo0+ 4 b 0.3514(2) 0.1368(1) 0.3452(3) 0.4 1. 0
#End of TTdata_58000-ICSD