
#(C) 2018 by FIZ Karlsruhe - Leibniz Institute for Information Infrastructure.  All rights reserved.
data_20710-ICSD
_database_code_ICSD 20710
_audit_creation_date 1980-01-01
_audit_update_record 2012-08-01
_chemical_name_systematic Cyclo-hexasulfur
_chemical_formula_structural S6
_chemical_formula_sum S6
_chemical_name_mineral 'Sulphur epsilon'
_exptl_crystal_density_diffrn 2.19
_publ_section_title 'The chain model of the structure of rhombohedric sulphur'
loop_
_citation_id
_citation_journal_full
_citation_year
_citation_journal_volume
_citation_page_first
_citation_page_last
_citation_journal_id_ASTM
primary 'Zhurnal Strukturnoi Khimii (Issue-No. from 1981)' 1962 3 559 562 ZSTKAI
loop_
_publ_author_name
'Soklakov, A.I.'
_cell_length_a 10.9
_cell_length_b 10.9
_cell_length_c 4.26
_cell_angle_alpha 90.
_cell_angle_beta 90.
_cell_angle_gamma 120.
_cell_volume 438.32
_cell_formula_units_Z 3
_symmetry_space_group_name_H-M 'P 3'
_symmetry_Int_Tables_number 143
_refine_ls_R_factor_all 0.19
loop_
_symmetry_equiv_pos_site_id
_symmetry_equiv_pos_as_xyz
1 '-x+y, -x, z'
2 '-y, x-y, z'
3 'x, y, z'
loop_
_atom_type_symbol
_atom_type_oxidation_number
S0+ 0
loop_
_atom_site_label
_atom_site_type_symbol
_atom_site_symmetry_multiplicity
_atom_site_Wyckoff_symbol
_atom_site_fract_x
_atom_site_fract_y
_atom_site_fract_z
_atom_site_B_iso_or_equiv
_atom_site_occupancy
_atom_site_attached_hydrogens
S1 S0+ 3 d 0.491 0.037 0 . 1. 0
S2 S0+ 3 d 0.508 -.13 0.347 . 1. 0
S3 S0+ 3 d 0.332 -.159 0.333 . 1. 0
S4 S0+ 3 d 0.204 0.049 0.681 . 1. 0
S5 S0+ 3 d 0.17 0.161 0.667 . 1. 0
S6 S0+ 3 d 0.275 0.182 -.014 . 1. 0
#End of TTdata_20710-ICSD