
#(C) 2017 by FIZ Karlsruhe - Leibniz Institute for Information Infrastructure.  All rights reserved.
data_88766-ICSD
_database_code_ICSD 88766
_audit_creation_date 2001-07-16
_chemical_name_systematic 'Praseodymium tungsten oxide (0.2/1/3)'
_chemical_formula_structural 'Pr0.2 W O3'
_chemical_formula_sum 'O3 Pr0.2 W1'
_exptl_crystal_density_diffrn 7.55
_publ_section_title

;
Intergrowth tungsten bronze structures of Prx W O3, formed at 50 kbar: an
HRTEM study
;
loop_
_citation_id
_citation_journal_full
_citation_year
_citation_journal_volume
_citation_page_first
_citation_page_last
_citation_journal_id_ASTM
primary 'Journal of Solid State Chemistry' 1999 147 536 544 JSSCBI
loop_
_publ_author_name
'Zakharov, N.D.'
'Werner, P.'
'Zibrov, I.P.'
'Filonenko, V.P.'
'Sundberg, M.R.'
_cell_length_a 10.17
_cell_length_b 7.418
_cell_length_c 3.79
_cell_angle_alpha 90.
_cell_angle_beta 90.
_cell_angle_gamma 90.
_cell_volume 285.92
_cell_formula_units_Z 5
_symmetry_space_group_name_H-M 'P 2 2 2'
_symmetry_Int_Tables_number 16
loop_
_symmetry_equiv_pos_site_id
_symmetry_equiv_pos_as_xyz
1 '-x, y, -z'
2 'x, -y, -z'
3 '-x, -y, z'
4 'x, y, z'
loop_
_atom_type_symbol
_atom_type_oxidation_number
Pr3+ 3
W5+ 5.4
O2- -2
loop_
_atom_site_label
_atom_site_type_symbol
_atom_site_symmetry_multiplicity
_atom_site_Wyckoff_symbol
_atom_site_fract_x
_atom_site_fract_y
_atom_site_fract_z
_atom_site_B_iso_or_equiv
_atom_site_occupancy
_atom_site_attached_hydrogens
Pr1 Pr3+ 1 h 0.5 0.5 0.5 . 1. 0
W1 W5+ 1 b 0.5 0 0 . 1. 0
W2 W5+ 4 u 0.19 0.26 0 . 1. 0
O1 O2- 2 i 0.15 0 0 . 1. 0
O2 O2- 2 m 0 0.3 0 . 1. 0
O3 O2- 4 u 0.37 0.18 0 . 1. 0
O4 O2- 2 k 0.21 0.5 0 . 1. 0
O5 O2- 1 f 0.5 0 0.5 . 1. 0
O6 O2- 4 u 0.19 0.26 0.5 . 1. 0
#End of TTdata_88766-ICSD