
#(C) 2018 by FIZ Karlsruhe - Leibniz Institute for Information Infrastructure.  All rights reserved.
data_190731-ICSD
_database_code_ICSD 190731
_audit_creation_date 2014-08-01
_chemical_name_systematic 'Copper(II) diantimonate'
_chemical_formula_structural 'Cu (Sb2 O4)'
_chemical_formula_sum 'Cu1 O4 Sb2'
_exptl_crystal_density_diffrn 5.54
_cell_measurement_temperature 293.
_publ_section_title 'Crystal structure and magnetic properties of Cu Sb2 O4'
loop_
_citation_id
_citation_journal_full
_citation_year
_citation_journal_volume
_citation_page_first
_citation_page_last
_citation_journal_id_ASTM
primary 'Journal of Materials Science' 2014 49 3497 3510 JMTSAS
loop_
_publ_author_name
'Atanasova, M.T.'
'Strydom, A.M.'
'Schutte, C.J.H.'
'Prinsloo, L.C.'
'Focke, W.W.'
_cell_length_a 8.76033(5)
_cell_length_b 8.76033(5)
_cell_length_c 5.79786(4)
_cell_angle_alpha 90.
_cell_angle_beta 90.
_cell_angle_gamma 90.
_cell_volume 444.95
_cell_formula_units_Z 4
_symmetry_space_group_name_H-M 'P 42 b c'
_symmetry_Int_Tables_number 106
_refine_ls_R_factor_all 0.063
loop_
_symmetry_equiv_pos_site_id
_symmetry_equiv_pos_as_xyz
1 '-y+1/2, -x+1/2, z+1/2'
2 'y, -x, z+1/2'
3 '-x+1/2, y+1/2, z'
4 '-x, -y, z'
5 'y+1/2, x+1/2, z+1/2'
6 '-y, x, z+1/2'
7 'x+1/2, -y+1/2, z'
8 'x, y, z'
loop_
_atom_type_symbol
_atom_type_oxidation_number
Cu2+ 2
Sb3+ 3
O2- -2
loop_
_atom_site_label
_atom_site_type_symbol
_atom_site_symmetry_multiplicity
_atom_site_Wyckoff_symbol
_atom_site_fract_x
_atom_site_fract_y
_atom_site_fract_z
_atom_site_B_iso_or_equiv
_atom_site_occupancy
_atom_site_attached_hydrogens
Cu1 Cu2+ 4 b 0 0.5 0.75 0.154(60) 1. 0
Sb1 Sb3+ 8 c 0.18667(8) 0.15301(8) 0.0080(3) 0.896(21) 1. 0
O1 O2- 8 c 0.7104(14) 0.1828(14) 0.7780(4) 1.150(23) 1. 0
O2 O2- 8 c 0.4080(5) 0.1220(5) 0.0230(6) 0.010(21) 1. 0
#End of TTdata_190731-ICSD