
#(C) 2018 by FIZ Karlsruhe - Leibniz Institute for Information Infrastructure.  All rights reserved.
data_34928-ICSD
_database_code_ICSD 34928
_audit_creation_date 1980-01-01
_audit_update_record 2003-10-01
_chemical_name_systematic 'Silicon oxide - HT'
_chemical_formula_structural 'Si O2'
_chemical_formula_sum 'O2 Si1'
_chemical_name_structure_type Cristobalite(alpha)
_chemical_name_mineral 'Cristobalite low'
_exptl_crystal_density_diffrn 2.31
_cell_measurement_temperature 338.
_publ_section_title
'High-temperature single-crystal study of the cristobalite inversion'
loop_
_citation_id
_citation_journal_full
_citation_year
_citation_journal_volume
_citation_page_first
_citation_page_last
_citation_journal_id_ASTM
primary

;
Zeitschrift fuer Kristallographie, Kristallgeometrie, Kristallphysik,
Kristallchemie (-144,1977)
; 1973 138 274 298 ZEKGAX
loop_
_publ_author_name
'Peacor, D.R.'
_cell_length_a 4.9823
_cell_length_b 4.9823
_cell_length_c 6.9638
_cell_angle_alpha 90.
_cell_angle_beta 90.
_cell_angle_gamma 90.
_cell_volume 172.86
_cell_formula_units_Z 4
_symmetry_space_group_name_H-M 'P 41 21 2'
_symmetry_Int_Tables_number 92
_refine_ls_R_factor_all 0.043
loop_
_symmetry_equiv_pos_site_id
_symmetry_equiv_pos_as_xyz
1 'x+1/2, -y+1/2, -z+3/4'
2 '-x+1/2, y+1/2, -z+1/4'
3 '-y, -x, -z+1/2'
4 'y, x, -z'
5 'y+1/2, -x+1/2, z+3/4'
6 '-y+1/2, x+1/2, z+1/4'
7 '-x, -y, z+1/2'
8 'x, y, z'
loop_
_atom_type_symbol
_atom_type_oxidation_number
Si4+ 4
O2- -2
loop_
_atom_site_label
_atom_site_type_symbol
_atom_site_symmetry_multiplicity
_atom_site_Wyckoff_symbol
_atom_site_fract_x
_atom_site_fract_y
_atom_site_fract_z
_atom_site_B_iso_or_equiv
_atom_site_occupancy
_atom_site_attached_hydrogens
Si1 Si4+ 4 a 0.2990(1) 0.2990(1) 0 . 1. 0
O1 O2- 8 b 0.2399(6) 0.1035(4) 0.1781(3) . 1. 0
loop_
_atom_site_aniso_label
_atom_site_aniso_type_symbol
_atom_site_aniso_beta_11
_atom_site_aniso_beta_22
_atom_site_aniso_beta_33
_atom_site_aniso_beta_12
_atom_site_aniso_beta_13
_atom_site_aniso_beta_23
Si1 Si4+ 0.0084(1) 0.0084(1) 0.0043(1) 0.0002(3) 0.0008(1) -.0002(3)
O1 O2- 0.0294(9) 0.0080(5) 0.0075(3) -.0006(8) 0.0037(5) 0.0022(4)
#End of TTdata_34928-ICSD