
#(C) 2017 by FIZ Karlsruhe - Leibniz Institute for Information Infrastructure.  All rights reserved.
data_410920-ICSD
_database_code_ICSD 410920
_audit_creation_date 2002-10-01
_chemical_name_systematic 'Sodium boride (2/29)'
_chemical_formula_structural 'Na2 B29'
_chemical_formula_sum 'B29 Na2'
_exptl_crystal_density_diffrn 2.34
_publ_section_title

;
"Na B15": a new structural description based on X-ray and neutron diffraction,
electron microscopy, and solid-state NMR spectroscopy
;
loop_
_citation_id
_citation_journal_full
_citation_year
_citation_journal_volume
_citation_page_first
_citation_page_last
_citation_journal_id_ASTM
primary 'Chemistry - A European Journal' 2000 6 2531 2536 CEUJED
loop_
_publ_author_name
'Albert, B.'
'Hofmann, K.'
'Fild, C.'
'Eckert, H.'
'Schleifer, M.'
'Gruehn, R.'
_cell_length_a 5.874(1)
_cell_length_b 10.403(1)
_cell_length_c 8.359(2)
_cell_angle_alpha 90.
_cell_angle_beta 90.17(3)
_cell_angle_gamma 90.
_cell_volume 510.79
_cell_formula_units_Z 2
_symmetry_space_group_name_H-M 'I 1 m 1'
_symmetry_Int_Tables_number 8
_refine_ls_R_factor_all 0.1016
loop_
_symmetry_equiv_pos_site_id
_symmetry_equiv_pos_as_xyz
1 'x, -y, z'
2 'x, y, z'
3 'x+1/2, -y+1/2, z+1/2'
4 'x+1/2, y+1/2, z+1/2'
loop_
_atom_type_symbol
_atom_type_oxidation_number
Na0+ 0
B0+ 0
loop_
_atom_site_label
_atom_site_type_symbol
_atom_site_symmetry_multiplicity
_atom_site_Wyckoff_symbol
_atom_site_fract_x
_atom_site_fract_y
_atom_site_fract_z
_atom_site_B_iso_or_equiv
_atom_site_occupancy
_atom_site_attached_hydrogens
Na1 Na0+ 2 a -.0019(14) 0 0.3377(5) . 1. 0
Na2 Na0+ 2 a 0.0009(16) 0.5 0.6525(5) . 1. 0
B1 B0+ 4 b 0.001(3) 0.3465(11) 0.1604(12) 0.009(2) 1. 0
B2 B0+ 4 b 0.002(3) 0.8442(11) 0.8414(12) 0.011(2) 1. 0
B3 B0+ 4 b 0.157(2) 0.3016(15) 0.8362(19) 0.004(3) 1. 0
B5 B0+ 4 b 0.836(2) 0.8054(17) 0.1685(18) 0.013(3) 1. 0
B4 B0+ 4 b 0.834(3) 0.6968(17) -.160(2) 0.010(3) 1. 0
B6 B0+ 4 b 0.156(3) 0.1984(16) 0.1659(17) 0.005(3) 1. 0
B7 B0+ 4 b -.002(3) 0.4143(10) 0.9614(10) 0.007(2) 1. 0
B8 B0+ 4 b -.002(3) 0.9183(11) 0.0418(11) 0.012(2) 1. 0
B9 B0+ 4 b 0.248(3) 0.3288(18) 0.0427(17) 0.006(2) 1. 0
B10 B0+ 4 b 0.748(3) 0.6672(16) 0.0404(14) 0.002(2) 1. 0
B11 B0+ 4 b 0.750(3) 0.8297(19) 0.9670(19) 0.012(3) 1. 0
B12 B0+ 4 b 0.246(3) 0.171(2) 0.957(2) 0.012(4) 1. 0
B13 B0+ 4 b 0.002(3) 0.3943(11) 0.3918(11) 0.016(3) 1. 0
B14 B0+ 4 b -.005(3) 0.8973(11) 0.6174(11) 0.010(2) 1. 0
B15 B0+ 2 a -.038(2) 0.5 0.2538(14) 0.017(3) 1. 0
loop_
_atom_site_aniso_label
_atom_site_aniso_type_symbol
_atom_site_aniso_U_11
_atom_site_aniso_U_22
_atom_site_aniso_U_33
_atom_site_aniso_U_12
_atom_site_aniso_U_13
_atom_site_aniso_U_23
Na1 Na0+ 0.024(4) 0.016(3) 0.005(2) 0 -.001(4) 0
Na2 Na0+ 0.024(4) 0.001(3) 0.013(3) 0 -.014(4) 0
#End of TTdata_410920-ICSD