
#(C) 2017 by FIZ Karlsruhe - Leibniz Institute for Information Infrastructure.  All rights reserved.
data_57113-ICSD
_database_code_ICSD 57113
_audit_creation_date 2003-10-01
_audit_update_record 2017-08-01
_chemical_name_systematic 'Praseodymium germanide (3/4.8)'
_chemical_formula_structural 'Pr3 Ge4.8'
_chemical_formula_sum 'Ge4.8 Pr3'
_chemical_name_structure_type Y3Ge5
_exptl_crystal_density_diffrn 6.91
_cell_measurement_temperature 1.5
_publ_section_title

;
Modulated structure and ferromagnetic ordering in PrGe1.60 studied by neutron
diffraction and magnetic measurements
;
loop_
_citation_id
_citation_journal_full
_citation_year
_citation_journal_volume
_citation_page_first
_citation_page_last
_citation_journal_id_ASTM
primary 'Journal of Magnetism and Magnetic Materials' 1990 89 47 55 JMMMDC
loop_
_publ_author_name
'Schobinger-Papamantellos, P.'
'Mooij, D.B. de'
'Buschow, K.H.J.'
_cell_length_a 5.9165(3)
_cell_length_b 17.747(1)
_cell_length_c 14.112(1)
_cell_angle_alpha 90.
_cell_angle_beta 90.
_cell_angle_gamma 90.
_cell_volume 1481.76
_cell_formula_units_Z 8
_symmetry_space_group_name_H-M 'F d d 2'
_symmetry_Int_Tables_number 43
_refine_ls_R_factor_all 0.012
loop_
_symmetry_equiv_pos_site_id
_symmetry_equiv_pos_as_xyz
1 'x+1/4, -y+1/4, z+1/4'
2 '-x+1/4, y+1/4, z+1/4'
3 '-x, -y, z'
4 'x, y, z'
5 'x+1/4, -y+3/4, z+3/4'
6 '-x+1/4, y+3/4, z+3/4'
7 '-x, -y+1/2, z+1/2'
8 'x, y+1/2, z+1/2'
9 'x+3/4, -y+1/4, z+3/4'
10 '-x+3/4, y+1/4, z+3/4'
11 '-x+1/2, -y, z+1/2'
12 'x+1/2, y, z+1/2'
13 'x+3/4, -y+3/4, z+1/4'
14 '-x+3/4, y+3/4, z+1/4'
15 '-x+1/2, -y+1/2, z'
16 'x+1/2, y+1/2, z'
loop_
_atom_type_symbol
_atom_type_oxidation_number
Pr0+ 0
Ge0+ 0
loop_
_atom_site_label
_atom_site_type_symbol
_atom_site_symmetry_multiplicity
_atom_site_Wyckoff_symbol
_atom_site_fract_x
_atom_site_fract_y
_atom_site_fract_z
_atom_site_B_iso_or_equiv
_atom_site_occupancy
_atom_site_attached_hydrogens
Pr1 Pr0+ 8 a 0 0 0 0.35(5) 1. 0
Pr2 Pr0+ 16 b 0.759(4) 0.078(1) 0.259(2) 0.35(5) 1. 0
Ge1 Ge0+ 8 a 0 0 0.441(2) 1.31(9) 0.8 0
Ge2 Ge0+ 8 a 0 0 0.595(3) 1.31(9) 0.8 0
Ge3 Ge0+ 16 b 0.780(2) 0.0749(9) 0.668(2) 1.31(9) 0.8 0
Ge4 Ge0+ 16 b 0.749(3) 0.0831(6) 0.838(2) 1.31(9) 0.8 0
#End of TTdata_57113-ICSD