
#(C) 2017 by FIZ Karlsruhe - Leibniz Institute for Information Infrastructure.  All rights reserved.
data_41969-ICSD
_database_code_ICSD 41969
_audit_creation_date 2000-07-15
_audit_update_record 2012-08-01
_chemical_name_systematic 'Bismuth zinc oxide (25.33/0.67/40)'
_chemical_formula_structural 'Bi25.333 Zn.667 O40'
_chemical_formula_sum 'Bi25.333 O40 Zn0.667'
_chemical_name_structure_type GaBi12O20
_exptl_crystal_density_diffrn 9.37
_publ_section_title

;
Structural studies of some body-centered cubic phases of mixed oxides
involving Bi2 O3: the structures of Bi25 Fe O40 and Bi38 Zn O60
;
loop_
_citation_id
_citation_journal_full
_citation_year
_citation_journal_volume
_citation_page_first
_citation_page_last
_citation_journal_id_ASTM
primary 'Journal of Solid State Chemistry' 1975 15 1 8 JSSCBI
loop_
_publ_author_name
'Craig, D.C.'
'Stephenson, N.C.'
_cell_length_a 10.1939(3)
_cell_length_b 10.1939(3)
_cell_length_c 10.1939(3)
_cell_angle_alpha 90.
_cell_angle_beta 90.
_cell_angle_gamma 90.
_cell_volume 1059.31
_cell_formula_units_Z 1
_symmetry_space_group_name_H-M 'I 2 2 2'
_symmetry_Int_Tables_number 23
_refine_ls_R_factor_all 0.033
loop_
_symmetry_equiv_pos_site_id
_symmetry_equiv_pos_as_xyz
1 '-x, y, -z'
2 'x, -y, -z'
3 '-x, -y, z'
4 'x, y, z'
5 '-x+1/2, y+1/2, -z+1/2'
6 'x+1/2, -y+1/2, -z+1/2'
7 '-x+1/2, -y+1/2, z+1/2'
8 'x+1/2, y+1/2, z+1/2'
loop_
_atom_type_symbol
_atom_type_oxidation_number
Bi3+ 3
Bi5+ 5
Zn2+ 2
O2- -2
loop_
_atom_site_label
_atom_site_type_symbol
_atom_site_symmetry_multiplicity
_atom_site_Wyckoff_symbol
_atom_site_fract_x
_atom_site_fract_y
_atom_site_fract_z
_atom_site_B_iso_or_equiv
_atom_site_occupancy
_atom_site_attached_hydrogens
Bi1 Bi3+ 8 k 0.82352(9) 0.68178(11) 0.6860(1) . 1. 0
Bi2 Bi3+ 8 k 0.98604(10) 0.82354(10) 0.68177(11) . 1. 0
Bi3 Bi3+ 8 k 0.68183(11) 0.98606(10) 0.82364(10) . 1. 0
Bi4 Bi5+ 2 a 0 0 0 . 0.67 0
Zn1 Zn2+ 2 a 0 0 0 . 0.33 0
O1 O2- 8 k 0.3131(19) 0.3120(18) 0.3111(21) . 1. 0
O2 O2- 8 k 0.366(2) 0.2489(20) 0.0135(26) . 1. 0
O3 O2- 8 k 0.2496(22) 0.0118(26) 0.3620(17) . 1. 0
O4 O2- 8 k 0.0116(28) 0.3649(20) 0.2477(24) . 1. 0
O5 O2- 8 k 0.1047(26) 0.1069(23) 0.1061(22) . 1. 0
loop_
_atom_site_aniso_label
_atom_site_aniso_type_symbol
_atom_site_aniso_beta_11
_atom_site_aniso_beta_22
_atom_site_aniso_beta_33
_atom_site_aniso_beta_12
_atom_site_aniso_beta_13
_atom_site_aniso_beta_23
Bi1 Bi3+ 0.00154(7) 0.00430(9) 0.00214(8) 0.00093(9) -.00002(8) 0.00096(8)
Bi2 Bi3+ 0.00226(8) 0.00127(7) 0.00457(9) 0.00001(8) 0.00106(8) 0.00104(8)
Bi3 Bi3+ 0.00461(9) 0.00196(8) 0.00147(7) 0.00105(8) 0.00101(9) -.00001(8)
Bi4 Bi5+ 0.0073(8) 0.0071(7) 0.0082(8) 0 0 0
Zn1 Zn2+ 0.0073(8) 0.0071(7) 0.0082(8) 0 0 0
O1 O2- 0.0049(19) 0.0038(18) 0.0069(21) 0.0018(16) 0.0022(18) 0.0001(17)
O2 O2- 0.0037(19) 0.0048(20) 0.0046(24) 0.0007(15) -.0009(17) -.0020(19)
O3 O2- 0.0049(23) 0.0022(23) 0.0012(16) -.0006(19) -.0009(14) -.0013(15)
O4 O2- 0.0053(24) 0.0042(20) 0.0089(26) -.0019(19) -.0029(22) 0.0006(17)
O5 O2- 0.0052(28) 0.0022(25) 0.0007(22) 0.0005(18) 0.0000(17) 0.0006(16)
#End of TTdata_41969-ICSD