
#(C) 2018 by FIZ Karlsruhe - Leibniz Institute for Information Infrastructure.  All rights reserved.
data_160980-ICSD
_database_code_ICSD 160980
_audit_creation_date 2009-02-01
_audit_update_record 2014-08-01
_chemical_name_systematic 'Calcium bis(tetradeuteridoborate) - beta'
_chemical_formula_structural 'Ca (B D4)2'
_chemical_formula_sum 'D8 B2 Ca1'
_chemical_name_structure_type H8CaB2
_exptl_crystal_density_diffrn 1.23
_cell_measurement_temperature 480.
_publ_section_title

;
Structure of Ca (B D4)2 beta-phase from combined neutron and synchrotron X-ray
powder diffraction data and density functional calculations
;
loop_
_citation_id
_citation_journal_full
_citation_year
_citation_journal_volume
_citation_page_first
_citation_page_last
_citation_journal_id_ASTM
primary 'Journal of Physical Chemistry B' 2008 112 8042 8048 JPCBFK
loop_
_publ_author_name
'Buchter, F.'
'Lodziana, Z.'
'Remhof, A.'
'Friedrichs, O.'
'Borgschulte, A.'
'Mauron, P.'
'Zuettel, A.'
'Sheptyakov, D.'
'Barkhordarian, G.'
'Bormann, R.'
'Chlopek, K.'
'Fichtner, M.'
'Sorby, M.'
'Riktor, M.'
'Hauback, B.'
'Orimo, S.'
_cell_length_a 6.9468(11)
_cell_length_b 6.9468(11)
_cell_length_c 4.3661(8)
_cell_angle_alpha 90.
_cell_angle_beta 90.
_cell_angle_gamma 90.
_cell_volume 210.7
_cell_formula_units_Z 2
_symmetry_space_group_name_H-M 'P 42'
_symmetry_Int_Tables_number 77
_refine_ls_R_factor_all 0.0304
loop_
_symmetry_equiv_pos_site_id
_symmetry_equiv_pos_as_xyz
1 'y, -x, z+1/2'
2 '-y, x, z+1/2'
3 '-x, -y, z'
4 'x, y, z'
loop_
_atom_type_symbol
_atom_type_oxidation_number
Ca2+ 2
B3+ 3
D1- -1
loop_
_atom_site_label
_atom_site_type_symbol
_atom_site_symmetry_multiplicity
_atom_site_Wyckoff_symbol
_atom_site_fract_x
_atom_site_fract_y
_atom_site_fract_z
_atom_site_B_iso_or_equiv
_atom_site_occupancy
_atom_site_attached_hydrogens
Ca1 Ca2+ 2 c 0 0.5 0 3.9(2) 1. 0
B1 B3+ 4 d 0.207(5) 0.699(5) 0.534(11) 2.8(4) 1. 0
D1 D1- 4 d 0.355(8) 0.728(11) 0.61(2) 9.7(10) 1. 0
D2 D1- 4 d 0.148(9) 0.734(8) 0.29(2) 9.7(10) 1. 0
D3 D1- 4 d 0.173(11) 0.827(9) 0.71(2) 9.7(10) 1. 0
D4 D1- 4 d 0.184(5) 0.553(8) 0.48(2) 9.7(10) 1. 0
#End of TTdata_160980-ICSD