
#(C) 2017 by FIZ Karlsruhe - Leibniz Institute for Information Infrastructure, and the U.S. Secretary of
#Commerce on behalf of the United States.  All rights reserved.
data_625405-ICSD
_database_code_ICSD 625405
_audit_creation_date 2013-08-01
_chemical_name_systematic 'Cobalt telluride (1/2)'
_chemical_formula_structural 'Co Te2'
_chemical_formula_sum 'Co1 Te2'
_chemical_name_structure_type Marcasite-FeS2(oP6)
_exptl_crystal_density_diffrn 8.
_publ_section_title

;
High-pressure phase transformations of the systems Ni1-xCoxTe2 and Ni1-xFexTe2
;
_publ_section_comment 'Cell and Type only determined'
loop_
_citation_id
_citation_journal_full
_citation_year
_citation_journal_volume
_citation_page_first
_citation_page_last
_citation_journal_id_ASTM
primary 'Inorganic Chemistry' 1976 15 3031 3034 INOCAJ
loop_
_publ_author_name
'Korenstein, R.'
'Henry, R.L.'
'Wold, A.'
_cell_length_a 5.312(3)
_cell_length_b 6.311(3)
_cell_length_c 3.889(3)
_cell_angle_alpha 90.
_cell_angle_beta 90.
_cell_angle_gamma 90.
_cell_volume 130.37
_cell_formula_units_Z 2
_symmetry_space_group_name_H-M 'P n n 2'
_symmetry_Int_Tables_number 34
loop_
_symmetry_equiv_pos_site_id
_symmetry_equiv_pos_as_xyz
1 'x+1/2, -y+1/2, z+1/2'
2 '-x+1/2, y+1/2, z+1/2'
3 '-x, -y, z'
4 'x, y, z'
loop_
_atom_type_symbol
_atom_type_oxidation_number
Co2+ 2
Te1- -1
loop_
_atom_site_label
_atom_site_type_symbol
_atom_site_symmetry_multiplicity
_atom_site_Wyckoff_symbol
_atom_site_fract_x
_atom_site_fract_y
_atom_site_fract_z
_atom_site_B_iso_or_equiv
_atom_site_occupancy
_atom_site_attached_hydrogens
Co1 Co2+ 2 a 0 0 0 . 1. 0
Te1 Te1- 4 c 0.188 0.357 0.01 . 1. 0
#End of TTdata_625405-ICSD