
#(C) 2018 by FIZ Karlsruhe - Leibniz Institute for Information Infrastructure.  All rights reserved.
data_59955-ICSD
_database_code_ICSD 59955
_audit_creation_date 2005-10-01
_chemical_name_systematic 'Dicopper selenide - alpha'
_chemical_formula_structural 'Cu2 Se'
_chemical_formula_sum 'Cu2 Se1'
_exptl_crystal_density_diffrn 6.96
_publ_section_title
'Structural study of Cu(2-x) Se alloy produced by mechanical alloying'
loop_
_citation_id
_citation_journal_full
_citation_year
_citation_journal_volume
_citation_page_first
_citation_page_last
_citation_journal_id_ASTM
primary 'Acta Crystallographica, Section B: Structural Science' 2004 60 282 286
ASBSDK
loop_
_publ_author_name
'Machado, K.D.'
'de Lima, J.C.'
'Grandi, T.A.'
'Campos, C.E.M.'
'Maurmann, C.E.'
'Gasperin, A.A.M.'
'Souza, S.M.'
'Pimenta, A.F.'
_cell_length_a 5.8164(3)
_cell_length_b 5.8164(3)
_cell_length_c 5.8164(3)
_cell_angle_alpha 90.
_cell_angle_beta 90.
_cell_angle_gamma 90.
_cell_volume 196.77
_cell_formula_units_Z 4
_symmetry_space_group_name_H-M 'F 2 3'
_symmetry_Int_Tables_number 196
_refine_ls_R_factor_all 0.0375
loop_
_symmetry_equiv_pos_site_id
_symmetry_equiv_pos_as_xyz
1 '-z, -x, y'
2 '-y, -z, x'
3 '-x, -y, z'
4 '-z, x, -y'
5 '-y, z, -x'
6 '-x, y, -z'
7 'z, -x, -y'
8 'y, -z, -x'
9 'x, -y, -z'
10 'z, x, y'
11 'y, z, x'
12 'x, y, z'
13 '-z, -x+1/2, y+1/2'
14 '-y, -z+1/2, x+1/2'
15 '-x, -y+1/2, z+1/2'
16 '-z, x+1/2, -y+1/2'
17 '-y, z+1/2, -x+1/2'
18 '-x, y+1/2, -z+1/2'
19 'z, -x+1/2, -y+1/2'
20 'y, -z+1/2, -x+1/2'
21 'x, -y+1/2, -z+1/2'
22 'z, x+1/2, y+1/2'
23 'y, z+1/2, x+1/2'
24 'x, y+1/2, z+1/2'
25 '-z+1/2, -x, y+1/2'
26 '-y+1/2, -z, x+1/2'
27 '-x+1/2, -y, z+1/2'
28 '-z+1/2, x, -y+1/2'
29 '-y+1/2, z, -x+1/2'
30 '-x+1/2, y, -z+1/2'
31 'z+1/2, -x, -y+1/2'
32 'y+1/2, -z, -x+1/2'
33 'x+1/2, -y, -z+1/2'
34 'z+1/2, x, y+1/2'
35 'y+1/2, z, x+1/2'
36 'x+1/2, y, z+1/2'
37 '-z+1/2, -x+1/2, y'
38 '-y+1/2, -z+1/2, x'
39 '-x+1/2, -y+1/2, z'
40 '-z+1/2, x+1/2, -y'
41 '-y+1/2, z+1/2, -x'
42 '-x+1/2, y+1/2, -z'
43 'z+1/2, -x+1/2, -y'
44 'y+1/2, -z+1/2, -x'
45 'x+1/2, -y+1/2, -z'
46 'z+1/2, x+1/2, y'
47 'y+1/2, z+1/2, x'
48 'x+1/2, y+1/2, z'
loop_
_atom_type_symbol
_atom_type_oxidation_number
Cu0+ 0
Se0+ 0
loop_
_atom_site_label
_atom_site_type_symbol
_atom_site_symmetry_multiplicity
_atom_site_Wyckoff_symbol
_atom_site_fract_x
_atom_site_fract_y
_atom_site_fract_z
_atom_site_B_iso_or_equiv
_atom_site_occupancy
_atom_site_attached_hydrogens
Cu1 Cu0+ 4 c .25 .25 .25 . 1 0
Cu2 Cu0+ 4 b .5 .5 .5 . .42 0
Cu3 Cu0+ 16 e .3333 .3333 .3333 . .08 0
Cu4 Cu0+ 16 e .6667 .6667 .6667 . .08 0
Se1 Se0+ 4 a 0 0 0 . 1 0
#End of TTdata_59955-ICSD