
#(C) 2018 by FIZ Karlsruhe - Leibniz Institute for Information Infrastructure.  All rights reserved.
data_42434-ICSD
_database_code_ICSD 42434
_audit_creation_date 2000-07-15
_audit_update_record 2003-04-01
_chemical_name_systematic 'Vanadium deuteride (4/2.88) - gamma'
_chemical_formula_structural 'V4 D2.88'
_chemical_formula_sum 'D2.88 V4'
_chemical_name_structure_type V4H3
_exptl_crystal_density_diffrn 5.6
_cell_measurement_temperature 88.
_publ_section_title 'Interstial superstructures of vanadium deuterides'
loop_
_citation_id
_citation_journal_full
_citation_year
_citation_journal_volume
_citation_page_first
_citation_page_last
_citation_journal_id_ASTM
primary 'Physica Status Solidi A - Applications and Materials' 1973 15 267 279
PSSABA
loop_
_publ_author_name
'Asano, H.'
'Hirabayashi, M.'
_cell_length_a 4.445
_cell_length_b 6.286
_cell_length_c 4.445
_cell_angle_alpha 90.
_cell_angle_beta 90.
_cell_angle_gamma 90.
_cell_volume 124.2
_cell_formula_units_Z 2
_symmetry_space_group_name_H-M 'P c c 2'
_symmetry_Int_Tables_number 27
_refine_ls_R_factor_all 0.1
loop_
_symmetry_equiv_pos_site_id
_symmetry_equiv_pos_as_xyz
1 '-x, y, z+1/2'
2 'x, -y, z+1/2'
3 '-x, -y, z'
4 'x, y, z'
loop_
_atom_type_symbol
_atom_type_oxidation_number
V0+ 0
D0+ 0
loop_
_atom_site_label
_atom_site_type_symbol
_atom_site_symmetry_multiplicity
_atom_site_Wyckoff_symbol
_atom_site_fract_x
_atom_site_fract_y
_atom_site_fract_z
_atom_site_B_iso_or_equiv
_atom_site_occupancy
_atom_site_attached_hydrogens
V1 V0+ 4 e 0.25 0.375 0.25 . 1. 0
V2 V0+ 4 e 0.25 0.875 0.25 . 1. 0
D1 D0+ 4 e 0.5 0.25 0 . 0.96 0
D2 D0+ 2 a 0 0 0 . 0.96 0
#End of TTdata_42434-ICSD