
#(C) 2018 by FIZ Karlsruhe - Leibniz Institute for Information Infrastructure.  All rights reserved.
data_1501-ICSD
_database_code_ICSD 1501
_audit_creation_date 1980-01-01
_audit_update_record 2013-08-01
_chemical_name_systematic 'Vanadium(IV) oxide - Al-doped'
_chemical_formula_structural 'V O2'
_chemical_formula_sum 'O2 V1'
_chemical_name_structure_type VO2(aP12)
_exptl_crystal_density_diffrn 2.33
_publ_section_title
'Structural aspects of the metal-insulator transitions in V0.985 Al0.015 O2'
loop_
_citation_id
_citation_journal_full
_citation_year
_citation_journal_volume
_citation_page_first
_citation_page_last
_citation_journal_id_ASTM
primary 'Journal of Solid State Chemistry' 1977 22 423 438 JSSCBI
loop_
_publ_author_name
'Ghedira, M.'
'Vincent, H.'
'Marezio, M.'
'Launay, J.C.'
_cell_length_a 9.06
_cell_length_b 5.7721(1)
_cell_length_c 4.5203(1)
_cell_angle_alpha 89.99(1)
_cell_angle_beta 91.40(1)
_cell_angle_gamma 89.83(1)
_cell_volume 236.32
_cell_formula_units_Z 4
_symmetry_space_group_name_H-M 'P -1'
_symmetry_Int_Tables_number 2
_refine_ls_R_factor_all 0.049
loop_
_symmetry_equiv_pos_site_id
_symmetry_equiv_pos_as_xyz
1 '-x, -y, -z'
2 'x, y, z'
loop_
_atom_type_symbol
_atom_type_oxidation_number
V4+ 4
O2- -2
loop_
_atom_site_label
_atom_site_type_symbol
_atom_site_symmetry_multiplicity
_atom_site_Wyckoff_symbol
_atom_site_fract_x
_atom_site_fract_y
_atom_site_fract_z
_atom_site_B_iso_or_equiv
_atom_site_occupancy
_atom_site_attached_hydrogens
V1 V4+ 2 i -.00430(6) 0.72111(24) -.00699(10) . 1. 0
V2 V4+ 2 i 0.23300(5) -.00797(14) 0.52695(13) . 1. 0
O1 O2- 2 i 0.1494(2) 0.2494(6) 0.2979(7) 0.0068(8) 1. 0
O2 O2- 2 i 0.3965(2) 0.0008(6) 0.2103(6) 0.0067(9) 1. 0
O3 O2- 2 i 0.0998(2) -.0009(6) 0.7978(6) 0.0067(8) 1. 0
O4 O2- 2 i 0.1463(2) 0.7542(6) 0.2930(8) 0.0064(8) 1. 0
loop_
_atom_site_aniso_label
_atom_site_aniso_type_symbol
_atom_site_aniso_U_11
_atom_site_aniso_U_22
_atom_site_aniso_U_33
_atom_site_aniso_U_12
_atom_site_aniso_U_13
_atom_site_aniso_U_23
V1 V4+ 0.0084(2) 0.0066(5) 0.0083(3) -.0004(2) 0.0023(2) -.0007(2)
V2 V4+ 0.0063(2) 0.0123(6) 0.0052(2) 0.0008(2) -.0014(3) 0.0010(2)
#End of TTdata_1501-ICSD