
#(C) 2018 by FIZ Karlsruhe - Leibniz Institute for Information Infrastructure.  All rights reserved.
data_61221-ICSD
_database_code_ICSD 61221
_audit_creation_date 1986-12-03
_audit_update_record 2010-08-01
_chemical_name_systematic 'Potassium tungsten oxide (.26/1/3)'
_chemical_formula_structural 'K.26 W O3'
_chemical_formula_sum 'K0.26 O3 W1'
_chemical_name_structure_type KxWO3
_exptl_crystal_density_diffrn 6.79
_cell_measurement_temperature 295.
_publ_section_title

;
Time-of-flight single-crystal neutron and X-ray diffraction study of K.26 W O3
;
loop_
_citation_id
_citation_journal_full
_citation_year
_citation_journal_volume
_citation_page_first
_citation_page_last
_citation_journal_id_ASTM
primary 'Acta Crystallographica, Section C: Crystal Structure Communications'
1986 42 641 644 ACSCEE
loop_
_publ_author_name
'Schultz, A.J.'
'Horiuchi, H.'
_cell_length_a 7.389(1)
_cell_length_b 7.389(1)
_cell_length_c 7.508(2)
_cell_angle_alpha 90.
_cell_angle_beta 90.
_cell_angle_gamma 120.
_cell_volume 355.
_cell_formula_units_Z 6
_symmetry_space_group_name_H-M 'P 63'
_symmetry_Int_Tables_number 173
_refine_ls_R_factor_all 0.046
loop_
_symmetry_equiv_pos_site_id
_symmetry_equiv_pos_as_xyz
1 'x-y, x, z+1/2'
2 'y, -x+y, z+1/2'
3 '-x, -y, z+1/2'
4 '-x+y, -x, z'
5 '-y, x-y, z'
6 'x, y, z'
loop_
_atom_type_symbol
_atom_type_oxidation_number
W0+ 0
O0+ 0
K0+ 0
loop_
_atom_site_label
_atom_site_type_symbol
_atom_site_symmetry_multiplicity
_atom_site_Wyckoff_symbol
_atom_site_fract_x
_atom_site_fract_y
_atom_site_fract_z
_atom_site_B_iso_or_equiv
_atom_site_occupancy
_atom_site_attached_hydrogens
W1 W0+ 6 c 0.47305(6) -.00006(6) 0.25 0.30(2) 1. 0
O1 O0+ 6 c 0.429(2) 0.221(1) 0.280(2) 0.63(8) 1. 0
O2 O0+ 6 c 0.212(2) 0.413(2) 0.228(2) 0.63(8) 1. 0
O3 O0+ 6 c 0.510(7) -.008(3) 0 3.1(6) 1. 0
K1 K0+ 2 a 0 0 0.059(5) 4.3(4) 0.78 0
#End of TTdata_61221-ICSD