
#(C) 2018 by FIZ Karlsruhe - Leibniz Institute for Information Infrastructure.  All rights reserved.
data_245338-ICSD
_database_code_ICSD 245338
_audit_creation_date 2008-02-01
_audit_update_record 2013-02-01
_chemical_name_systematic 'Arsenic(III) arsenic(V) oxoacide *'
_chemical_formula_structural 'H6 As14 O31'
_chemical_formula_sum 'H6 As14 O31'
_exptl_crystal_density_diffrn 4.32
_publ_section_title

;
The crystal structure of a new mixed valence arsenic(III,IV) oxoacid H6
As7(3+) As7(5+) O31
;
loop_
_citation_id
_citation_journal_full
_citation_year
_citation_journal_volume
_citation_page_first
_citation_page_last
_citation_journal_id_ASTM
primary 'Zeitschrift fuer Kristallographie (1979-2010)' 2007 222 321 325 ZEKRDZ
loop_
_publ_author_name
'Orosel, D.'
'Dinnebier, R.E.'
'Balog, P.'
'Jansen, M.'
_cell_length_a 12.0525(1)
_cell_length_b 12.0525(1)
_cell_length_c 4.7344(1)
_cell_angle_alpha 90.
_cell_angle_beta 90.
_cell_angle_gamma 120.
_cell_volume 595.59
_cell_formula_units_Z 1
_symmetry_space_group_name_H-M 'P 63'
_symmetry_Int_Tables_number 173
_refine_ls_R_factor_all 0.0866
loop_
_symmetry_equiv_pos_site_id
_symmetry_equiv_pos_as_xyz
1 'x-y, x, z+1/2'
2 'y, -x+y, z+1/2'
3 '-x, -y, z+1/2'
4 '-x+y, -x, z'
5 '-y, x-y, z'
6 'x, y, z'
loop_
_atom_type_symbol
_atom_type_oxidation_number
As3+ 3
As5+ 5
As4+ 4
O2- -2
H1+ 1
loop_
_atom_site_label
_atom_site_type_symbol
_atom_site_symmetry_multiplicity
_atom_site_Wyckoff_symbol
_atom_site_fract_x
_atom_site_fract_y
_atom_site_fract_z
_atom_site_B_iso_or_equiv
_atom_site_occupancy
_atom_site_attached_hydrogens
As1 As3+ 6 c 0.683(3) 0.825(3) 0.250(3) 0.008(1) 1. 0
As2 As5+ 6 c 0.438(3) 0.390(2) 0.258(3) 0.010(2) 1. 0
As3 As4+ 2 b 0.6666 0.3333 0.244(3) 0.008(1) 1. 0
O1 O2- 6 c 0.476(1) 0.532(1) 0.040(0) 0.001(2) 1. 0
O2 O2- 6 c 0.848(1) 0.911(1) 0.170(3) 0.001(2) 1. 0
O3 O2- 6 c 0.635(1) 0.923(1) 0.429(3) 0.001(2) 1. 0
O4 O2- 6 c 0.829(1) 0.612(1) 0.421(3) 0.001(2) 1. 0
O5 O2- 6 c 0.364(1) 0.817(1) 0.579(3) 0.001(2) 1. 0
O6 O2- 2 b 0.3333 0.6666 0.092(3) 0.002 0.5 0
H1 H1+ 6 c 0.891(1) 0.972(2) 0.009(2) 0.001 1. 0
#End of TTdata_245338-ICSD