
#(C) 2017 by FIZ Karlsruhe - Leibniz Institute for Information Infrastructure.  All rights reserved.
data_56761-ICSD
_database_code_ICSD 56761
_audit_creation_date 2003-04-01
_audit_update_record 2014-08-01
_chemical_name_systematic 'Europium chloride (4/9)'
_chemical_formula_structural 'Eu4 Cl9'
_chemical_formula_sum 'Cl9 Eu4'
_chemical_name_structure_type Eu4Cl9
_exptl_crystal_density_diffrn 4.48
_publ_section_title
'Die Kristallstruktur des neuen Strukturtyps Ln4 X9 (Ln=Eu,Nd; X=Cl,Br)'
loop_
_citation_id
_citation_journal_full
_citation_year
_citation_journal_volume
_citation_page_first
_citation_page_last
_citation_journal_id_ASTM
primary 'Dissertation Universitaet Karlsruhe' 1987 1987 1 139 DIKARM
loop_
_publ_author_name
'Bachmann, R.'
_cell_length_a 7.2335(5)
_cell_length_b 28.3023(19)
_cell_length_c 6.7189(7)
_cell_angle_alpha 90.
_cell_angle_beta 90.
_cell_angle_gamma 91.779(9)
_cell_volume 1374.86
_cell_formula_units_Z 4
_symmetry_space_group_name_H-M 'P 1 1 b'
_symmetry_Int_Tables_number 7
_refine_ls_R_factor_all 0.0381
loop_
_symmetry_equiv_pos_site_id
_symmetry_equiv_pos_as_xyz
1 'x, y+1/2, -z'
2 'x, y, z'
loop_
_atom_type_symbol
_atom_type_oxidation_number
Eu2+ 2
Eu3+ 3
Eu2+ 2
Eu3+ 3
Cl1- -1
loop_
_atom_site_label
_atom_site_type_symbol
_atom_site_symmetry_multiplicity
_atom_site_Wyckoff_symbol
_atom_site_fract_x
_atom_site_fract_y
_atom_site_fract_z
_atom_site_B_iso_or_equiv
_atom_site_occupancy
_atom_site_attached_hydrogens
Eu1 Eu2+ 2 a 0.32061 0.43337 0.02704(12) 1.26(2) 1. 0
Eu2 Eu2+ 2 a 0.71848(22) 0.30899(6) 0.01572(12) 1.26(2) 1. 0
Eu3 Eu2+ 2 a 0.29212(23) 0.19190(6) -.00292(12) 1.09(2) 1. 0
Eu4 Eu2+ 2 a 0.68614(23) 0.06976(6) 0.01068(13) 1.29(2) 1. 0
Eu5 Eu2+ 2 a 0.81849(23) 0.43104(6) 0.48548(11) 1.26(2) 1. 0
Eu6 Eu3+ 2 a 0.20562(21) 0.30717(6) 0.47823(11) 0.96(2) 1. 0
Eu7 Eu2+ 2 a 0.78203(21) 0.19191(6) 0.47453(14) 1.23(2) 1. 0
Eu8 Eu3+ 2 a 0.18048(21) 0.06702(6) 0.45629(12) 0.93(2) 1. 0
Cl1 Cl1- 2 a 0.6014(9) 0.4900(3) 0.2377(6) 1.68(8) 1. 0
Cl2 Cl1- 2 a 0.6545(7) 0.4004(2) 0.8483(6) 1.69(8) 1. 0
Cl3 Cl1- 2 a 0.4943(7) 0.3668(2) 0.3214(6) 1.37(8) 1. 0
Cl4 Cl1- 2 a 0.3559(6) 0.2960(2) 0.8423(5) 1.96(8) 1. 0
Cl5 Cl1- 2 a 0.4884(7) 0.2517(2) 0.3085(5) 1.23(8) 1. 0
Cl6 Cl1- 2 a 0.6738(7) 0.1984(2) 0.8889(6) 2.14(8) 1. 0
Cl7 Cl1- 2 a 0.4772(7) 0.1282(2) 0.3014(5) 1.38(8) 1. 0
Cl8 Cl1- 2 a 0.3514(7) 0.0998(2) 0.7944(6) 1.75(8) 1. 0
Cl9 Cl1- 2 a 0.4153(8) 0.0111(3) 0.2537(7) 1.68(8) 1. 0
Cl10 Cl1- 2 a 0.1095(8) 0.4929(3) 0.2936(6) 1.82(8) 1. 0
Cl11 Cl1- 2 a 0.1509(7) 0.3933(2) 0.6696(5) 1.69(8) 1. 0
Cl12 Cl1- 2 a 0.0204(7) 0.3687(2) 0.2003(5) 1.34(8) 1. 0
Cl13 Cl1- 2 a -.1513(7) 0.2974(2) 0.6086(6) 1.83(8) 1. 0
Cl14 Cl1- 2 a 0.0149(7) 0.2521(2) 0.1822(5) 1.18(8) 1. 0
Cl15 Cl1- 2 a 0.1580(7) 0.2068(2) 0.6025(5) 1.76(8) 1. 0
Cl16 Cl1- 2 a 0.0054(7) 0.1277(2) 0.1854(6) 1.32(8) 1. 0
Cl17 Cl1- 2 a -.1270(7) 0.0987(2) 0.6453(6) 1.85(8) 1. 0
Cl18 Cl1- 2 a -.0671(9) 0.0102(4) 0.2424(7) 2.13(8) 1. 0
loop_
_atom_site_aniso_label
_atom_site_aniso_type_symbol
_atom_site_aniso_U_11
_atom_site_aniso_U_22
_atom_site_aniso_U_33
_atom_site_aniso_U_12
_atom_site_aniso_U_13
_atom_site_aniso_U_23
Eu1 Eu2+ 0.0159(6) 0.0170(7) 0.0148(4) -0.0032(5) 0.0026(4) 0.0028(5)
Eu2 Eu2+ 0.0137(7) 0.0166(8) 0.0174(4) 0.0002(6) -0.0009(4) 0.0015(5)
Eu3 Eu2+ 0.0151(6) 0.0113(7) 0.0152(4) 0.0013(5) 0.0005(4) 0.0004(5)
Eu4 Eu2+ 0.0153(7) 0.0195(9) 0.0141(4) -0.0016(6) -0.0004(5) -0.0005(6)
Eu5 Eu2+ 0.0140(7) 0.0182(9) 0.0156(4) -0.0010(6) -0.0004(4) 0.0015(5)
Eu6 Eu3+ 0.0113(6) 0.0130(7) 0.0122(4) -0.0008(5) -0.0009(4) -0.0002(4)
Eu7 Eu2+ 0.0138(7) 0.0122(7) 0.0207(5) 0.0005(5) -0.0021(4) 0.0009(5)
Eu8 Eu3+ 0.0113(6) 0.0122(7) 0.0117(4) 0.0009(4) -0.0006(4) -0.0001(5)
Cl1 Cl1- 0.0267(32) 0.0114(34) 0.0255(22) -0.0026(26) -0.0127(19) 0.0034(21)
Cl2 Cl1- 0.0207(26) 0.0162(27) 0.0276(21) 0.0068(21) 0.0103(18) 0.0065(20)
Cl3 Cl1- 0.0199(26) 0.0130(25) 0.0188(18) -0.0047(18) -0.0022(18) 0.0039(18)
Cl4 Cl1- 0.0245(25) 0.0251(28) 0.0245(19) -0.0041(21) -0.0100(17) 0.0078(20)
Cl5 Cl1- 0.0109(23) 0.0158(23) 0.0198(16) -0.0026(18) -0.0011(20) 0.0003(22)
Cl6 Cl1- 0.0250(30) 0.0264(31) 0.0299(21) -0.0020(23) 0.0069(20) -0.0046(21)
Cl7 Cl1- 0.0187(26) 0.0122(26) 0.0201(20) -0.0011(19) -0.0009(21) 0.0010(24)
Cl8 Cl1- 0.0240(26) 0.0195(26) 0.0231(18) -0.0006(19) -0.0123(17) -0.0038(17)
Cl9 Cl1- 0.0203(29) 0.0142(27) 0.0289(18) -0.0066(21) 0.0121(19) -0.0002(25)
Cl10 Cl1- 0.0240(27) 0.0219(32) 0.0227(20) -0.0069(22) 0.0064(17) -0.0085(23)
Cl11 Cl1- 0.0235(25) 0.0195(28) 0.0216(18) 0.0060(20) -0.0079(16) -0.0048(18)
Cl12 Cl1- 0.0191(28) 0.0166(28) 0.0149(17) -0.0025(21) -0.0023(20) 0.0000(20)
Cl13 Cl1- 0.0177(24) 0.0292(33) 0.0224(20) -0.0049(21) 0.0032(17) -0.0054(21)
Cl14 Cl1- 0.0163(25) 0.0130(27) 0.0160(16) 0.0035(20) -0.0005(18) -0.0047(21)
Cl15 Cl1- 0.0232(23) 0.0203(27) 0.0228(19) -0.0073(19) -0.0058(17) 0.0057(19)
Cl16 Cl1- 0.0162(27) 0.0154(26) 0.0184(18) 0.0011(19) -0.0003(19) 0.0045(22)
Cl17 Cl1- 0.0272(27) 0.0219(31) 0.0216(19) 0.0062(22) 0.0089(17) 0.0047(20)
Cl18 Cl1- 0.0308(28) 0.0231(34) 0.0273(22) 0.0002(26) -0.0122(21) -0.0020(23)
#End of TTdata_56761-ICSD