
#(C) 2017 by FIZ Karlsruhe - Leibniz Institute for Information Infrastructure.  All rights reserved.
data_246657-ICSD
_database_code_ICSD 246657
_audit_creation_date 2010-02-01
_chemical_name_systematic 'Samarium - HP'
_chemical_formula_structural Sm
_chemical_formula_sum Sm1
_exptl_crystal_density_diffrn 16.52
_cell_measurement_pressure 77000000.
_publ_section_title
'Intermediate 4f bonding structure for samarium under pressure'
loop_
_citation_id
_citation_journal_full
_citation_year
_citation_journal_volume
_citation_page_first
_citation_page_last
_citation_journal_id_ASTM
primary 'Physical Review, Serie 3. B - Condensed Matter (18,1978-)' 1994 50 6603
6608 PRBMDO
loop_
_publ_author_name
'Zhao, Y.C.'
'Porsch, F.'
'Holzapfel, W.B.'
_cell_length_a 2.806
_cell_length_b 2.806
_cell_length_c 6.648
_cell_angle_alpha 90.
_cell_angle_beta 90.
_cell_angle_gamma 120.
_cell_volume 45.33
_cell_formula_units_Z 3
_symmetry_space_group_name_H-M 'P 31 2 1'
_symmetry_Int_Tables_number 152
loop_
_symmetry_equiv_pos_site_id
_symmetry_equiv_pos_as_xyz
1 'x-y, -y, -z+2/3'
2 '-x, -x+y, -z+1/3'
3 'y, x, -z'
4 '-x+y, -x, z+2/3'
5 '-y, x-y, z+1/3'
6 'x, y, z'
loop_
_atom_type_symbol
_atom_type_oxidation_number
Sm0+ 0
loop_
_atom_site_label
_atom_site_type_symbol
_atom_site_symmetry_multiplicity
_atom_site_Wyckoff_symbol
_atom_site_fract_x
_atom_site_fract_y
_atom_site_fract_z
_atom_site_B_iso_or_equiv
_atom_site_occupancy
_atom_site_attached_hydrogens
Sm1 Sm0+ 3 a 0.45 0 0.3333 . 1. 0
#End of TTdata_246657-ICSD