
#(C) 2017 by FIZ Karlsruhe - Leibniz Institute for Information Infrastructure.  All rights reserved.
data_2284-ICSD
_database_code_ICSD 2284
_audit_creation_date 1980-01-01
_chemical_name_systematic 'Cerium - alpha'
_chemical_formula_structural Ce
_chemical_formula_sum Ce1
_chemical_name_structure_type O2(mS4)
_exptl_crystal_density_diffrn 9.82
_cell_measurement_pressure 67890.
_publ_section_title 'Crystal structures of the alpha-cerium phases'
loop_
_citation_id
_citation_journal_full
_citation_year
_citation_journal_volume
_citation_page_first
_citation_page_last
_citation_journal_id_ASTM
primary 'Proceedings of the National Academy of Sciences, U.S.A.' 1978 75 1066
1067 PNASA6
loop_
_publ_author_name
'Zachariasen, W.H.'
_cell_length_a 5.813(6)
_cell_length_b 3.148(5)
_cell_length_c 5.622
_cell_angle_alpha 90.
_cell_angle_beta 112.85(10)
_cell_angle_gamma 90.
_cell_volume 94.81
_cell_formula_units_Z 4
_symmetry_space_group_name_H-M 'C 1 2/m 1'
_symmetry_Int_Tables_number 12
loop_
_symmetry_equiv_pos_site_id
_symmetry_equiv_pos_as_xyz
1 '-x, y, -z'
2 '-x, -y, -z'
3 'x, -y, z'
4 'x, y, z'
5 '-x+1/2, y+1/2, -z'
6 '-x+1/2, -y+1/2, -z'
7 'x+1/2, -y+1/2, z'
8 'x+1/2, y+1/2, z'
loop_
_atom_type_symbol
_atom_type_oxidation_number
Ce0+ 0
loop_
_atom_site_label
_atom_site_type_symbol
_atom_site_symmetry_multiplicity
_atom_site_Wyckoff_symbol
_atom_site_fract_x
_atom_site_fract_y
_atom_site_fract_z
_atom_site_B_iso_or_equiv
_atom_site_occupancy
_atom_site_attached_hydrogens
Ce1 Ce0+ 4 i 0.278(8) 0 0.25 . 1. 0
#End of TTdata_2284-ICSD