
#(C) 2018 by FIZ Karlsruhe - Leibniz Institute for Information Infrastructure.  All rights reserved.
data_54001-ICSD
_database_code_ICSD 54001
_audit_creation_date 1999-01-19
_chemical_name_systematic 'Aluminium phosphate(V) - beta'
_chemical_formula_structural 'Al (P O4)'
_chemical_formula_sum 'Al1 O4 P1'
_chemical_name_structure_type AlPO4(HT)
_chemical_name_mineral Berlinite
_exptl_crystal_density_diffrn 2.5
_cell_measurement_temperature 631.
_publ_section_title

;
The temperature dependence of the crystal structure of berlinite. a
quartz-type form of Al P O4
;
loop_
_citation_id
_citation_journal_full
_citation_year
_citation_journal_volume
_citation_page_first
_citation_page_last
_citation_journal_id_ASTM
primary 'Physics and Chemistry of Minerals' 1997 24 243 253 PCMIDU
loop_
_publ_author_name
'Muraoka, Y.'
'Kihara, K.'
_cell_length_a 5.0402(9)
_cell_length_b 5.0402(9)
_cell_length_c 11.063(2)
_cell_angle_alpha 90.
_cell_angle_beta 90.
_cell_angle_gamma 120.
_cell_volume 243.39
_cell_formula_units_Z 3
_symmetry_space_group_name_H-M 'P 64 2 2'
_symmetry_Int_Tables_number 181
_refine_ls_R_factor_all 0.035
loop_
_symmetry_equiv_pos_site_id
_symmetry_equiv_pos_as_xyz
1 'x, x-y, -z+2/3'
2 '-x+y, y, -z'
3 '-y, -x, -z+1/3'
4 '-x, -x+y, -z+2/3'
5 'x-y, -y, -z'
6 'y, x, -z+1/3'
7 'x-y, x, z+2/3'
8 'y, -x+y, z+1/3'
9 '-x, -y, z'
10 '-x+y, -x, z+2/3'
11 '-y, x-y, z+1/3'
12 'x, y, z'
loop_
_atom_type_symbol
_atom_type_oxidation_number
Al3+ 3
P5+ 5
O2- -2
loop_
_atom_site_label
_atom_site_type_symbol
_atom_site_symmetry_multiplicity
_atom_site_Wyckoff_symbol
_atom_site_fract_x
_atom_site_fract_y
_atom_site_fract_z
_atom_site_B_iso_or_equiv
_atom_site_occupancy
_atom_site_attached_hydrogens
Al1 Al3+ 3 d 0.5 0 0.5 0.030(1) 1. 0
P1 P5+ 3 c 0.5 0 0 0.030(1) 1. 0
O1 O2- 12 k 0.4201(8) 0.2286(7) 0.2443(3) 0.069(2) 1. 0
#End of TTdata_54001-ICSD