
#(C) 2018 by FIZ Karlsruhe - Leibniz Institute for Information Infrastructure.  All rights reserved.
data_251037-ICSD
_database_code_ICSD 251037
_audit_creation_date 2015-02-01
_chemical_name_systematic 'Magnesium silicide (9/5)'
_chemical_formula_structural 'Mg9 Si5'
_chemical_formula_sum 'Mg9 Si5'
_exptl_crystal_density_diffrn 2.17
_cell_measurement_temperature 293.
_publ_section_title

;
Structural characterization of magnesium-based compounds Mg9Si5 and Mg4Si3Al
(superconductor) synthesized under high pressure and high temperature
conditions
;
loop_
_citation_id
_citation_journal_full
_citation_year
_citation_journal_volume
_citation_page_first
_citation_page_last
_citation_journal_id_ASTM
primary 'Inorganic Chemistry' 2013 52 3953 3961 INOCAJ
loop_
_publ_author_name
'Ji, Shidong'
'Imai, Motoharu'
'Zhu, Haikui'
'Yamanaka, Shoji'
_cell_length_a 12.411(1)
_cell_length_b 12.411(1)
_cell_length_c 12.345(1)
_cell_angle_alpha 90
_cell_angle_beta 90
_cell_angle_gamma 120
_cell_volume 1646.77
_cell_formula_units_Z 6
_symmetry_space_group_name_H-M 'P 63'
_symmetry_Int_Tables_number 173
_refine_ls_R_factor_all 0.0149
loop_
_symmetry_equiv_pos_site_id
_symmetry_equiv_pos_as_xyz
1 'x-y, x, z+1/2'
2 'y, -x+y, z+1/2'
3 '-x, -y, z+1/2'
4 '-x+y, -x, z'
5 '-y, x-y, z'
6 'x, y, z'
loop_
_atom_type_symbol
_atom_type_oxidation_number
Si0+ 0
Mg0+ 0
loop_
_atom_site_label
_atom_site_type_symbol
_atom_site_symmetry_multiplicity
_atom_site_Wyckoff_symbol
_atom_site_fract_x
_atom_site_fract_y
_atom_site_fract_z
_atom_site_B_iso_or_equiv
_atom_site_occupancy
_atom_site_attached_hydrogens
Si1 Si0+ 2 a 0 0 0.0436(2) 0.0122(6) 0.840(8) 0
Si2 Si0+ 2 a 0 0 -0.0338(16) 0.039(5) 0.165(8) 0
Si3 Si0+ 2 a 0 0 0.24926(15) 0.0155(2) 1 0
Si4 Si0+ 6 c 0.33101(3) 0.00368(3) 0.25563(12) 0.00936(10) 1 0
Si5 Si0+ 2 b 0.3333 0.6667 -0.09512(12) 0.0153(3) 1 0
Si6 Si0+ 6 c 0.33633(6) 0.33537(6) 0.41953(9) 0.0094(3) 1 0
Si7 Si0+ 6 c 0.33580(7) 0.33586(7) 0.08964(10) 0.0098(2) 1 0
Si8 Si0+ 2 b 0.3333 0.6667 0.10800(13) 0.0153(3) 1 0
Si9 Si0+ 2 b 0.6667 0.3333 -0.09707(12) 0.0147(3) 1 0
Si10 Si0+ 2 b 0.6667 0.3333 0.10576(13) 0.0151(3) 1 0
Mg1 Mg0+ 6 c 0.24337(5) 0.16983(5) 0.25260(10) 0.01220(12) 1 0
Mg2 Mg0+ 6 c 0.53356(4) 0.40469(4) 0.25416(9) 0.01510(11) 1 0
Mg3 Mg0+ 6 c 0.07734(9) 0.23316(14) 0.09398(6) 0.0161(2) 1 0
Mg4 Mg0+ 6 c 0.82706(11) 0.25280(9) 0.07934(7) 0.0129(2) 1 0
Mg5 Mg0+ 6 c 0.49822(10) 0.58945(9) 0.09015(7) 0.0128(2) 1 0
Mg6 Mg0+ 6 c 0.26560(5) 0.45660(5) 0.25581(10) 0.01528(11) 1 0
Mg7 Mg0+ 6 c 0.25391(10) 0.42593(11) -0.07303(7) 0.0128(2) 1 0
Mg8 Mg0+ 6 c 0.49959(11) 0.40890(10) -0.08112(6) 0.0128(2) 1 0
Mg9 Mg0+ 6 c 0.07211(10) 0.21322(14) 0.41414(6) 0.0183(2) 1 0
loop_
_atom_site_aniso_label
_atom_site_aniso_type_symbol
_atom_site_aniso_U_11
_atom_site_aniso_U_22
_atom_site_aniso_U_33
_atom_site_aniso_U_12
_atom_site_aniso_U_13
_atom_site_aniso_U_23
Si1 Si0+ 0.0079(4) 0.0079(4) 0.0207(14) 0.00396(19) 0 0
Si2 Si0+ 0.024(3) 0.024(3) 0.068(15) 0.0119(13) 0 0
Si3 Si0+ 0.0104(2) 0.0104(2) 0.0255(5) 0.00521(11) 0 0
Si4 Si0+ 0.01005(19) 0.00986(19) 0.00854(17) 0.00525(14) 0.0000(3) -0.0003(2)
Si5 Si0+ 0.0100(4) 0.0100(4) 0.0259(8) 0.00500(19) 0 0
Si6 Si0+ 0.0097(4) 0.0095(4) 0.0089(5) 0.0049(3) -0.00065(18) -0.00113(19)
Si7 Si0+ 0.0099(4) 0.0095(4) 0.0099(4) 0.0048(3) 0.00070(15) 0.00116(16)
Si8 Si0+ 0.0108(4) 0.0108(4) 0.0242(7) 0.00542(18) 0 0
Si9 Si0+ 0.0096(4) 0.0096(4) 0.0251(8) 0.00479(18) 0 0
Si10 Si0+ 0.0111(4) 0.0111(4) 0.0230(7) 0.00556(19) 0 0
Mg1 Mg0+ 0.0120(2) 0.0119(2) 0.0126(2) 0.0059(2) 0.0010(4) 0.0011(4)
Mg2 Mg0+ 0.0159(2) 0.0125(2) 0.0154(2) 0.00595(17) 0.0009(4) 0.0002(4)
Mg3 Mg0+ 0.0129(4) 0.0202(5) 0.0153(4) 0.0085(3) 0.0004(3) -0.0024(3)
Mg4 Mg0+ 0.0120(4) 0.0118(4) 0.0145(5) 0.0057(4) 0.0018(3) -0.0001(3)
Mg5 Mg0+ 0.0114(4) 0.0116(5) 0.0148(4) 0.0053(4) 0.0015(3) -0.0008(3)
Mg6 Mg0+ 0.0137(2) 0.0159(2) 0.0155(2) 0.00687(18) -0.0004(4) 0.0003(5)
Mg7 Mg0+ 0.0114(4) 0.0130(5) 0.0141(5) 0.0062(3) -0.0002(3) 0.0015(3)
Mg8 Mg0+ 0.0123(5) 0.0127(5) 0.0138(4) 0.0065(4) 0.0007(3) -0.0007(3)
Mg9 Mg0+ 0.0128(4) 0.0256(6) 0.0158(5) 0.0091(3) 0.0003(3) 0.0029(4)
#End of TTdata_251037-ICSD