
#(C) 2017 by FIZ Karlsruhe - Leibniz Institute for Information Infrastructure.  All rights reserved.
data_99272-ICSD
_database_code_ICSD 99272
_audit_creation_date 2005-04-01
_chemical_name_systematic 'Nickel telluride (2.88/2)'
_chemical_formula_structural 'Ni2.88 Te2'
_chemical_formula_sum 'Ni2.88 Te2'
_exptl_crystal_density_diffrn 8.14
_publ_section_title

;
Crystal structures of the compounds Ni3 Te2, Ni3-d Te2 (d = 0.12) and Ni1.29
Te
;
loop_
_citation_id
_citation_journal_full
_citation_year
_citation_journal_volume
_citation_page_first
_citation_page_last
_citation_journal_id_ASTM
primary 'Journal of Alloys and Compounds' 2004 376 131 138 JALCEU
loop_
_publ_author_name
'Gulay, L.D.'
'Olekseyuk, I.D.'
_cell_length_a 7.5382(4)
_cell_length_b 3.7879(2)
_cell_length_c 6.0647(2)
_cell_angle_alpha 90
_cell_angle_beta 90
_cell_angle_gamma 90
_cell_volume 173.17
_cell_formula_units_Z 2
_symmetry_space_group_name_H-M 'P m a 2'
_symmetry_Int_Tables_number 28
_refine_ls_R_factor_all 0.0779
loop_
_symmetry_equiv_pos_site_id
_symmetry_equiv_pos_as_xyz
1 'x+1/2, -y, z'
2 '-x+1/2, y, z'
3 '-x, -y, z'
4 'x, y, z'
loop_
_atom_type_symbol
_atom_type_oxidation_number
Ni0+ 0
Te0+ 0
loop_
_atom_site_label
_atom_site_type_symbol
_atom_site_symmetry_multiplicity
_atom_site_Wyckoff_symbol
_atom_site_fract_x
_atom_site_fract_y
_atom_site_fract_z
_atom_site_B_iso_or_equiv
_atom_site_occupancy
_atom_site_attached_hydrogens
Ni1 Ni0+ 2 a 0 0 0.298(2) 0.4(2) 0.459(7) 0
Ni2 Ni0+ 2 c 0.25 0.500(7) 0.689(2) 1.2(3) 0.421(7) 0
Ni3 Ni0+ 2 b 0 0.5 0 0.2(1) 1. 0
Ni4 Ni0+ 2 c 0.25 0.033(2) 0.002(2) 0.6(1) 1. 0
Te1 Te0+ 2 a 0 0 0.7218(3) 0.40(7) 1. 0
Te2 Te0+ 2 c 0.25 0.500(2) 0.2951(3) 0.36(6) 1. 0
#End of TTdata_99272-ICSD