#------------------------------------------------------------------------------
#$Date: 2016-02-14 16:26:36 +0200 (Sun, 14 Feb 2016) $
#$Revision: 176435 $
#$URL: svn://www.crystallography.net/cod/cif/2/10/53/2105365.cif $
#------------------------------------------------------------------------------
#
# This file is available in the Crystallography Open Database (COD),
# http://www.crystallography.net/. The original data for this entry
# were provided by IUCr Journals, http://journals.iucr.org/.
#
# The file may be used within the scientific community so long as
# proper attribution is given to the journal article from which the
# data were obtained.
#
data_2105365
loop_
_publ_author_name
'McMasters, O.D.'
'Gschneidner, K.A.jr.'
'Venteicher, R.F.'
_publ_section_title
;
 Crystallography of the silver-rich rare earth-silver intermetallic
 compounds
;
_journal_name_full               'Acta Crystallographica B (24,1968-38,1982)'
_journal_page_first              1224
_journal_page_last               1229
_journal_paper_doi               10.1107/S0567740870003928
_journal_volume                  26
_journal_year                    1970
_chemical_formula_sum            'Ag4 Lu'
_chemical_name_systematic        'Ag4 Lu'
_space_group_IT_number           87
_symmetry_space_group_name_Hall  '-I 4'
_symmetry_space_group_name_H-M   'I 4/m'
_cell_angle_alpha                90
_cell_angle_beta                 90
_cell_angle_gamma                90
_cell_formula_units_Z            2
_cell_length_a                   6.6696
_cell_length_b                   6.6696
_cell_length_c                   4.1581
_cell_volume                     184.967
_citation_journal_id_ASTM        ACBCAR
_cod_data_source_file            silver3-x_160.cif
_cod_data_source_block           Ag4Lu1
_cod_original_cell_volume        184.9671
_cod_original_formula_sum        'Ag4 Lu1'
_cod_database_code               2105365
loop_
_symmetry_equiv_pos_as_xyz
x,y,z
-y,x,z
-x,-y,z
y,-x,z
-x,-y,-z
y,-x,-z
x,y,-z
-y,x,-z
x+1/2,y+1/2,z+1/2
-y+1/2,x+1/2,z+1/2
-x+1/2,-y+1/2,z+1/2
y+1/2,-x+1/2,z+1/2
-x+1/2,-y+1/2,-z+1/2
y+1/2,-x+1/2,-z+1/2
x+1/2,y+1/2,-z+1/2
-y+1/2,x+1/2,-z+1/2
loop_
_atom_site_label
_atom_site_type_symbol
_atom_site_fract_x
_atom_site_fract_y
_atom_site_fract_z
_atom_site_occupancy
_atom_site_U_iso_or_equiv
Ag1 Ag 0.2 0.4 0 1 0.0
Lu1 Lu 0 0 0 1 0.0
