
#(C) 2018 by FIZ Karlsruhe - Leibniz Institute for Information Infrastructure.  All rights reserved.
data_72804-ICSD
_database_code_ICSD 72804
_audit_creation_date 1994-01-19
_chemical_name_systematic 'Aluminium phosphate fluoride *'
_chemical_formula_structural 'Al12 (P O4)12 F'
_chemical_formula_sum 'Al12 F1 O48 P12'
_chemical_name_structure_type Zeolite-AlPO-5-frame
_exptl_crystal_density_diffrn 1.75
_publ_section_title 'Studies on the structure of SAPO-5 molecular sieves'
loop_
_citation_id
_citation_journal_full
_citation_year
_citation_journal_volume
_citation_page_first
_citation_page_last
_citation_journal_id_ASTM
primary 'Gaodeng Xuexiao Huaxue Xuebao' 1992 13 1165 1167 KTHPDM
loop_
_publ_author_name
'Zhao, D.-Q.'
'Pang, W.-Q.'
'Li, L.'
'Yang, G.-D.'
_cell_length_a 13.802
_cell_length_b 13.802
_cell_length_c 8.503
_cell_angle_alpha 90.
_cell_angle_beta 90.
_cell_angle_gamma 120.
_cell_volume 1402.77
_cell_formula_units_Z 1
_symmetry_space_group_name_H-M 'P 6 c c'
_symmetry_Int_Tables_number 184
_refine_ls_R_factor_all 0.043
loop_
_symmetry_equiv_pos_site_id
_symmetry_equiv_pos_as_xyz
1 'x, x-y, z+1/2'
2 '-x+y, y, z+1/2'
3 '-y, -x, z+1/2'
4 '-x, -x+y, z+1/2'
5 'x-y, -y, z+1/2'
6 'y, x, z+1/2'
7 'x-y, x, z'
8 'y, -x+y, z'
9 '-x, -y, z'
10 '-x+y, -x, z'
11 '-y, x-y, z'
12 'x, y, z'
loop_
_atom_type_symbol
_atom_type_oxidation_number
P5+ 5
Al3+ 3
O2- -2
F1- -1
loop_
_atom_site_label
_atom_site_type_symbol
_atom_site_symmetry_multiplicity
_atom_site_Wyckoff_symbol
_atom_site_fract_x
_atom_site_fract_y
_atom_site_fract_z
_atom_site_B_iso_or_equiv
_atom_site_occupancy
_atom_site_attached_hydrogens
P1 P5+ 12 d 0.4532(1) 0.3277(6) 0.053 0.038(4) 1. 0
Al1 Al3+ 12 d 0.4556(2) 0.3371(4) 0.4250(7) 0.036(2) 1. 0
O1 O2- 12 d 0.3626(7) 0.3587(3) 0.0011(2) 0.007(5) 1. 0
O2 O2- 12 d 0.4196(2) 0.2141(2) 0.0077(8) 0.060(5) 1. 0
O3 O2- 12 d 0.5660(6) 0.4103(2) -.0059(9) 0.065(4) 1. 0
O4 O2- 12 d 0.4540(8) 0.3295(5) 0.2389(2) 0.104(9) 1. 0
F1 F1- 6 c 0.5 0.5 0.3179 . 0.1667 0
#End of TTdata_72804-ICSD