
#(C) 2017 by FIZ Karlsruhe - Leibniz Institute for Information Infrastructure.  All rights reserved.
data_24618-ICSD
_database_code_ICSD 24618
_audit_creation_date 1980-01-01
_audit_update_record 2012-08-01
_chemical_name_systematic 'Boron tetrathiophosphate(V)'
_chemical_formula_structural 'B (P S4)'
_chemical_formula_sum 'B1 P1 S4'
_exptl_crystal_density_diffrn 2.12
_publ_section_title 'Zur Kenntnis von Bortetrathiophosphat B P S4'
loop_
_citation_id
_citation_journal_full
_citation_year
_citation_journal_volume
_citation_page_first
_citation_page_last
_citation_journal_id_ASTM
primary

;
Zeitschrift fuer Naturforschung, Teil B. Anorganische Chemie, Organische
Chemie (2,1947-32,1977)
; 1963 18 81 82 ZENBAX
loop_
_publ_author_name
'Weiss, A.'
'Schaefer, H.'
_cell_length_a 5.60(6)
_cell_length_b 5.25(6)
_cell_length_c 9.04(6)
_cell_angle_alpha 90.
_cell_angle_beta 90.
_cell_angle_gamma 90.
_cell_volume 265.78
_cell_formula_units_Z 2
_symmetry_space_group_name_H-M 'I 2 2 2'
_symmetry_Int_Tables_number 23
loop_
_symmetry_equiv_pos_site_id
_symmetry_equiv_pos_as_xyz
1 '-x, y, -z'
2 'x, -y, -z'
3 '-x, -y, z'
4 'x, y, z'
5 '-x+1/2, y+1/2, -z+1/2'
6 'x+1/2, -y+1/2, -z+1/2'
7 '-x+1/2, -y+1/2, z+1/2'
8 'x+1/2, y+1/2, z+1/2'
loop_
_atom_type_symbol
_atom_type_oxidation_number
B3+ 3
P5+ 5
S2- -2
loop_
_atom_site_label
_atom_site_type_symbol
_atom_site_symmetry_multiplicity
_atom_site_Wyckoff_symbol
_atom_site_fract_x
_atom_site_fract_y
_atom_site_fract_z
_atom_site_B_iso_or_equiv
_atom_site_occupancy
_atom_site_attached_hydrogens
B1 B3+ 2 d 0 0.5 0 . 1. 0
P1 P5+ 2 a 0 0 0 . 1. 0
S1 S2- 8 k 0.2 0.29 0.115 . 1. 0
#End of TTdata_24618-ICSD