
#(C) 2018 by FIZ Karlsruhe - Leibniz Institute for Information Infrastructure.  All rights reserved.
data_100786-ICSD
_database_code_ICSD 100786
_audit_creation_date 1980-12-31
_audit_update_record 2016-02-01
_chemical_name_systematic 'Manganese phosphide (1/4)'
_chemical_formula_structural 'Mn P4'
_chemical_formula_sum 'Mn1 P4'
_chemical_name_structure_type MnP4
_exptl_crystal_density_diffrn 4.07
_publ_section_title

;
Preparation, properties, and structure refinement of the stacking variant 2-
Mn P4
;
loop_
_citation_id
_citation_journal_full
_citation_year
_citation_journal_volume
_citation_page_first
_citation_page_last
_citation_journal_id_ASTM
primary 'Materials Research Bulletin' 1980 15 1755 1762 MRBUAC
loop_
_publ_author_name
'Jeitschko, W.'
'Ruehl, R.'
'Krieger, U.'
'Heiden, C.'
_cell_length_a 5.861(2)
_cell_length_b 5.104(1)
_cell_length_c 5.836(2)
_cell_angle_alpha 93.82(1)
_cell_angle_beta 107.31(2)
_cell_angle_gamma 115.81(1)
_cell_volume 146.09
_cell_formula_units_Z 2
_symmetry_space_group_name_H-M 'P -1'
_symmetry_Int_Tables_number 2
_refine_ls_R_factor_all 0.082
loop_
_symmetry_equiv_pos_site_id
_symmetry_equiv_pos_as_xyz
1 '-x, -y, -z'
2 'x, y, z'
loop_
_atom_type_symbol
_atom_type_oxidation_number
Mn2+ 2
P0+ 0
P1- -1
P0+ 0
loop_
_atom_site_label
_atom_site_type_symbol
_atom_site_symmetry_multiplicity
_atom_site_Wyckoff_symbol
_atom_site_fract_x
_atom_site_fract_y
_atom_site_fract_z
_atom_site_B_iso_or_equiv
_atom_site_occupancy
_atom_site_attached_hydrogens
Mn1 Mn2+ 2 i 0.2172(2) 0.2158(3) 0.7256(2) 0.10(1) 1. 0
P1 P0+ 2 i 0.4873(4) 0.9385(5) 0.3037(4) 0.29(1) 1. 0
P2 P1- 2 i 0.1193(4) 0.2469(5) 0.3303(4) 0.20(1) 1. 0
P3 P1- 2 i 0.4198(4) 0.2990(5) 0.1522(4) 0.28(1) 1. 0
P4 P0+ 2 i 0.0453(4) 0.6001(5) 0.1957(4) 0.30(1) 1. 0
#End of TTdata_100786-ICSD