
#(C) 2017 by FIZ Karlsruhe - Leibniz Institute for Information Infrastructure.  All rights reserved.
data_44292-ICSD
_database_code_ICSD 44292
_audit_creation_date 2000-07-15
_audit_update_record 2016-02-01
_chemical_name_systematic 'Iron molybdenum boride (1/2/2)'
_chemical_formula_structural 'Fe Mo2 B2'
_chemical_formula_sum 'B2 Fe1 Mo2'
_chemical_name_structure_type Si2U3
_exptl_crystal_density_diffrn 8.44
_publ_section_title 'Isothermal section of the molybdenum-iron-boron system'
loop_
_citation_id
_citation_journal_full
_citation_year
_citation_journal_volume
_citation_page_first
_citation_page_last
_citation_journal_id_ASTM
primary 'Poroshkovaya Metallurgiya' 1966 5 305 309 PMANAI
loop_
_publ_author_name
'Gladyshevskii, E.I.'
'Fedorov, T.F.'
'Kuz'ma, Yu.B.'
'Skolozdra, R.V.'
'Hladyshevskii, E.I.'
_cell_length_a 5.807(4)
_cell_length_b 5.807
_cell_length_c 3.142(3)
_cell_angle_alpha 90.
_cell_angle_beta 90.
_cell_angle_gamma 90.
_cell_volume 105.95
_cell_formula_units_Z 2
_symmetry_space_group_name_H-M 'P 4/m b m'
_symmetry_Int_Tables_number 127
loop_
_symmetry_equiv_pos_site_id
_symmetry_equiv_pos_as_xyz
1 'y+1/2, x+1/2, -z'
2 '-y+1/2, -x+1/2, -z'
3 '-y, x, -z'
4 'y, -x, -z'
5 'x+1/2, -y+1/2, -z'
6 '-x+1/2, y+1/2, -z'
7 'x, y, -z'
8 '-x, -y, -z'
9 '-y+1/2, -x+1/2, z'
10 'y+1/2, x+1/2, z'
11 'y, -x, z'
12 '-y, x, z'
13 '-x+1/2, y+1/2, z'
14 'x+1/2, -y+1/2, z'
15 '-x, -y, z'
16 'x, y, z'
loop_
_atom_type_symbol
_atom_type_oxidation_number
Fe0+ 0
B0+ 0
Mo0+ 0
loop_
_atom_site_label
_atom_site_type_symbol
_atom_site_symmetry_multiplicity
_atom_site_Wyckoff_symbol
_atom_site_fract_x
_atom_site_fract_y
_atom_site_fract_z
_atom_site_B_iso_or_equiv
_atom_site_occupancy
_atom_site_attached_hydrogens
Fe1 Fe0+ 2 a 0 0 0 . 1. 0
B1 B0+ 4 g 0.39 0.89 0 . 1. 0
Mo1 Mo0+ 4 h 0.18 0.68 0.5 . 1. 0
#End of TTdata_44292-ICSD