
#(C) 2018 by FIZ Karlsruhe - Leibniz Institute for Information Infrastructure.  All rights reserved.
data_202564-ICSD
_database_code_ICSD 202564
_audit_creation_date 1988-12-19
_audit_update_record 2007-08-01
_chemical_name_systematic 'Tantalum sulfide (6/1)'
_chemical_formula_structural 'Ta6 S'
_chemical_formula_sum 'S1 Ta6'
_exptl_crystal_density_diffrn 15.36
_publ_section_title 'Die trikline Modifikation von Ta6 S'
loop_
_citation_id
_citation_journal_full
_citation_year
_citation_journal_volume
_citation_page_first
_citation_page_last
_citation_journal_id_ASTM
primary 'Journal of the Less-Common Metals' 1988 138 225 234 JCOMAH
loop_
_publ_author_name
'Harbrecht, B.'
_cell_length_a 5.243(1)
_cell_length_b 7.572(4)
_cell_length_c 7.611(3)
_cell_angle_alpha 59.32(4)
_cell_angle_beta 68.58(3)
_cell_angle_gamma 77.18(4)
_cell_volume 241.68
_cell_formula_units_Z 2
_symmetry_space_group_name_H-M 'P -1'
_symmetry_Int_Tables_number 2
_refine_ls_R_factor_all 0.095
loop_
_symmetry_equiv_pos_site_id
_symmetry_equiv_pos_as_xyz
1 '-x, -y, -z'
2 'x, y, z'
loop_
_atom_type_symbol
_atom_type_oxidation_number
Ta0+ 0.333
S2- -2
loop_
_atom_site_label
_atom_site_type_symbol
_atom_site_symmetry_multiplicity
_atom_site_Wyckoff_symbol
_atom_site_fract_x
_atom_site_fract_y
_atom_site_fract_z
_atom_site_B_iso_or_equiv
_atom_site_occupancy
_atom_site_attached_hydrogens
Ta1 Ta0+ 1 a 0 0 0 0.18(6) 1. 0
Ta2 Ta0+ 1 d 0.5 0 0 0.22(6) 1. 0
Ta3 Ta0+ 2 i 0.3691(7) 0.7033(5) 0.9248(4) 0.19(4) 1. 0
Ta4 Ta0+ 2 i 0.1639(7) 0.6921(5) 0.3727(5) 0.21(4) 1. 0
Ta5 Ta0+ 2 i 0.2189(8) 0.4108(5) 0.8130(9) 0.47(5) 1. 0
Ta6 Ta0+ 2 i 0.4286(7) 0.1487(5) 0.5718(4) 0.19(4) 1. 0
Ta7 Ta0+ 2 i 0.0473(7) 0.1380(5) 0.2874(5) 0.25(4) 1. 0
S1 S2- 2 i 0.222(4) 0.418(3) 0.286(3) 0.3(3) 1. 0
#End of TTdata_202564-ICSD