
#(C) 2017 by FIZ Karlsruhe - Leibniz Institute for Information Infrastructure.  All rights reserved.
data_85587-ICSD
_database_code_ICSD 85587
_audit_creation_date 1999-11-30
_chemical_name_systematic 'Sodium ozonide'
_chemical_formula_structural 'Na O3'
_chemical_formula_sum 'Na1 O3'
_chemical_name_structure_type NaNO2
_exptl_crystal_density_diffrn 2.21
_cell_measurement_temperature 213.
_publ_section_title
'Synthesis and crystal structure determination of sodium ozonide'
loop_
_citation_id
_citation_journal_full
_citation_year
_citation_journal_volume
_citation_page_first
_citation_page_last
_citation_journal_id_ASTM
primary 'ChemComm - Chemical Communications' 1998 1998 707 708 CHCOFS
loop_
_publ_author_name
'Klein, W.'
'Armbruster, K.'
'Jansen, M.'
_cell_length_a 3.5070(2)
_cell_length_b 5.7703(3)
_cell_length_c 5.2701(3)
_cell_angle_alpha 90.
_cell_angle_beta 90.
_cell_angle_gamma 90.
_cell_volume 106.65
_cell_formula_units_Z 2
_symmetry_space_group_name_H-M 'I m 2 m'
_symmetry_Int_Tables_number 44
_refine_ls_R_factor_all 0.037
loop_
_symmetry_equiv_pos_site_id
_symmetry_equiv_pos_as_xyz
1 'x, y, -z'
2 '-x, y, z'
3 '-x, y, -z'
4 'x, y, z'
5 'x+1/2, y+1/2, -z+1/2'
6 '-x+1/2, y+1/2, z+1/2'
7 '-x+1/2, y+1/2, -z+1/2'
8 'x+1/2, y+1/2, z+1/2'
loop_
_atom_type_symbol
_atom_type_oxidation_number
Na1+ 1
O0+ -0.333
loop_
_atom_site_label
_atom_site_type_symbol
_atom_site_symmetry_multiplicity
_atom_site_Wyckoff_symbol
_atom_site_fract_x
_atom_site_fract_y
_atom_site_fract_z
_atom_site_B_iso_or_equiv
_atom_site_occupancy
_atom_site_attached_hydrogens
Na1 Na1+ 2 a 0 0.5074(3) 0 2.20(5) 1. 0
O1 O0+ 2 a 0 0.0106(6) 0 4.97(8) 1. 0
O2 O0+ 4 c 0 0.8811(3) 0.2139(3) 2.87(6) 1. 0
#End of TTdata_85587-ICSD