
#(C) 2017 by FIZ Karlsruhe - Leibniz Institute for Information Infrastructure.  All rights reserved.
data_152131-ICSD
_database_code_ICSD 152131
_audit_creation_date 2006-10-01
_chemical_name_systematic 'Zirconium nickel aluminium (1/1/1)'
_chemical_formula_structural 'Zr Ni Al'
_chemical_formula_sum 'Al1 Ni1 Zr1'
_chemical_name_structure_type ZrNiAl-Fe2P
_exptl_crystal_density_diffrn 6.16
_publ_section_title

;
The intermetallic zirconium compounds Zr Ni Al, Zr Rh Sn and Zr Pt Ga -
structural distortions and metal-metal bonding in (Fe2 P)-related compounds
;
loop_
_citation_id
_citation_journal_full
_citation_year
_citation_journal_volume
_citation_page_first
_citation_page_last
_citation_journal_id_ASTM
primary 'Zeitschrift fuer Naturforschung, B: Chemical Sciences' 1999 54 45 53
ZNBSEN
loop_
_publ_author_name
'Zumdick, M.F.'
'Hoffmann, R.D.'
'Poettgen, R.'
_cell_length_a 6.906(1)
_cell_length_b 6.906(1)
_cell_length_c 3.464(1)
_cell_angle_alpha 90.
_cell_angle_beta 90.
_cell_angle_gamma 120.
_cell_volume 143.07
_cell_formula_units_Z 3
_symmetry_space_group_name_H-M 'P -6 2 m'
_symmetry_Int_Tables_number 189
_refine_ls_R_factor_all 0.0263
loop_
_symmetry_equiv_pos_site_id
_symmetry_equiv_pos_as_xyz
1 '-x, -x+y, -z'
2 'x-y, -y, -z'
3 'y, x, -z'
4 '-x, -x+y, z'
5 'x-y, -y, z'
6 'y, x, z'
7 '-x+y, -x, -z'
8 '-y, x-y, -z'
9 'x, y, -z'
10 '-x+y, -x, z'
11 '-y, x-y, z'
12 'x, y, z'
loop_
_atom_type_symbol
_atom_type_oxidation_number
Zr0+ 0
Ni0+ 0
Al0+ 0
loop_
_atom_site_label
_atom_site_type_symbol
_atom_site_symmetry_multiplicity
_atom_site_Wyckoff_symbol
_atom_site_fract_x
_atom_site_fract_y
_atom_site_fract_z
_atom_site_B_iso_or_equiv
_atom_site_occupancy
_atom_site_attached_hydrogens
Zr1 Zr0+ 3 g 0.5925(1) 0 0.5 0.0059(2) 1. 0
Ni1 Ni0+ 1 b 0 0 0.5 0.0080(3) 1. 0
Ni2 Ni0+ 2 c 0.3333 0.6667 0 0.0083(2) 1. 0
Al1 Al0+ 3 f 0.2505(3) 0 0 0.0063(4) 1. 0
loop_
_atom_site_aniso_label
_atom_site_aniso_type_symbol
_atom_site_aniso_U_11
_atom_site_aniso_U_22
_atom_site_aniso_U_33
_atom_site_aniso_U_12
_atom_site_aniso_U_13
_atom_site_aniso_U_23
Zr1 Zr0+ 0.0062(2) 0.0069(3) 0.0048(2) 0.0035(2) 0. 0.
Ni1 Ni0+ 0.0077(5) 0.0077(5) 0.0086(8) 0.0038(2) 0. 0.
Ni2 Ni0+ 0.0053(3) 0.0053(3) 0.0142(6) 0.0027(2) 0. 0.
Al1 Al0+ 0.0063(7) 0.0066(10) 0.0062(10) 0.0033(5) 0. 0.
#End of TTdata_152131-ICSD