
#(C) 2017 by FIZ Karlsruhe - Leibniz Institute for Information Infrastructure.  All rights reserved.
data_26487-ICSD
_database_code_ICSD 26487
_audit_creation_date 1980-01-01
_audit_update_record 2005-10-01
_chemical_name_systematic Boron
_chemical_formula_structural B
_chemical_formula_sum B1
_exptl_crystal_density_diffrn 2.47
_publ_section_title
'The crystal structure of a simple rhombohedral form of boron'
loop_
_citation_id
_citation_journal_full
_citation_year
_citation_journal_volume
_citation_page_first
_citation_page_last
_citation_journal_id_ASTM
primary 'Acta Crystallographica (1,1948-23,1967)' 1959 12 503 506 ACCRA9
loop_
_publ_author_name
'Decker, B.F.'
'Kasper, J.S.'
_cell_length_a 5.057(3)
_cell_length_b 5.057(3)
_cell_length_c 5.057(3)
_cell_angle_alpha 58.06(5)
_cell_angle_beta 58.06(5)
_cell_angle_gamma 58.06(5)
_cell_volume 87.38
_cell_formula_units_Z 12
_symmetry_space_group_name_H-M 'R -3 m R'
_symmetry_Int_Tables_number 166
_refine_ls_R_factor_all 0.118
loop_
_symmetry_equiv_pos_site_id
_symmetry_equiv_pos_as_xyz
1 '-z, -y, -x'
2 '-z, -x, -y'
3 '-x, -z, -y'
4 '-y, -z, -x'
5 '-y, -x, -z'
6 '-x, -y, -z'
7 'z, y, x'
8 'z, x, y'
9 'x, z, y'
10 'y, z, x'
11 'y, x, z'
12 'x, y, z'
loop_
_atom_type_symbol
_atom_type_oxidation_number
B0+ 0
loop_
_atom_site_label
_atom_site_type_symbol
_atom_site_symmetry_multiplicity
_atom_site_Wyckoff_symbol
_atom_site_fract_x
_atom_site_fract_y
_atom_site_fract_z
_atom_site_B_iso_or_equiv
_atom_site_occupancy
_atom_site_attached_hydrogens
B1 B0+ 6 h 0.0104 0.0104 -.3427 . 1. 0
B2 B0+ 6 h 0.2206 0.2206 -.3677 . 1. 0
#End of TTdata_26487-ICSD