
#(C) 2017 by FIZ Karlsruhe - Leibniz Institute for Information Infrastructure.  All rights reserved.
data_161310-ICSD
_database_code_ICSD 161310
_audit_creation_date 2009-02-01
_chemical_name_systematic 'Silicon oxide'
_chemical_formula_structural 'Si O2'
_chemical_formula_sum 'O2 Si1'
_chemical_name_structure_type PbO2-alpha
_chemical_name_mineral Seifertite
_exptl_crystal_density_diffrn 4.29
_publ_section_title

;
Seifertite, a dense orthorhombic polymorph of silica from the Martian
meteorites Shergotty and Zagami
;
loop_
_citation_id
_citation_journal_full
_citation_year
_citation_journal_volume
_citation_page_first
_citation_page_last
_citation_journal_id_ASTM
primary 'European Journal of Mineralogy' 2008 20 523 528 EJMIER
loop_
_publ_author_name
'El Goresy, A.'
'Dera, P.'
'Sharp, T.G.'
'Prewitt, C.T.'
'Chen Ming'
'Dubrovinsky, L.'
'Wopenka, B.'
'Boctor, N.Z.'
'Hemley, R.J.'
_cell_length_a 4.097(1)
_cell_length_b 5.0462(9)
_cell_length_c 4.4946(8)
_cell_angle_alpha 90.
_cell_angle_beta 90.
_cell_angle_gamma 90.
_cell_volume 92.92
_cell_formula_units_Z 4
_symmetry_space_group_name_H-M 'P b c n'
_symmetry_Int_Tables_number 60
loop_
_symmetry_equiv_pos_site_id
_symmetry_equiv_pos_as_xyz
1 'x, -y, z+1/2'
2 '-x+1/2, y+1/2, z'
3 'x+1/2, y+1/2, -z+1/2'
4 '-x, -y, -z'
5 '-x, y, -z+1/2'
6 'x+1/2, -y+1/2, -z'
7 '-x+1/2, -y+1/2, z+1/2'
8 'x, y, z'
loop_
_atom_type_symbol
_atom_type_oxidation_number
Si4+ 4
O2- -2
loop_
_atom_site_label
_atom_site_type_symbol
_atom_site_symmetry_multiplicity
_atom_site_Wyckoff_symbol
_atom_site_fract_x
_atom_site_fract_y
_atom_site_fract_z
_atom_site_B_iso_or_equiv
_atom_site_occupancy
_atom_site_attached_hydrogens
Si1 Si4+ 4 c 0 0.1522(9) 0.25 . 1. 0
O1 O2- 8 d 0.7336(19) 0.6245(9) 0.9186(29) . 1. 0
#End of TTdata_161310-ICSD