
#(C) 2017 by FIZ Karlsruhe - Leibniz Institute for Information Infrastructure.  All rights reserved.
data_26463-ICSD
_database_code_ICSD 26463
_audit_creation_date 1981-12-31
_audit_update_record 2012-02-01
_chemical_name_systematic Cyclo-dodecasulfur
_chemical_formula_structural S12
_chemical_formula_sum S12
_chemical_name_structure_type S12
_exptl_crystal_density_diffrn 2.04
_publ_section_title

;
Roentgenstrukturanalysen von Cyclododecaschwefel (S12) und
Cyclododecaschwefel-1-Kohlendisulfid ((S12) * (C S2))
;
loop_
_citation_id
_citation_journal_full
_citation_year
_citation_journal_volume
_citation_page_first
_citation_page_last
_citation_journal_id_ASTM
primary 'Zeitschrift fuer Anorganische und Allgemeine Chemie (1950) (DE)' 1981
476 171 178 ZAACAB
loop_
_publ_author_name
'Steidel, J.'
'Steudel, R.'
'Kutoglu, A.'
_cell_length_a 4.725(2)
_cell_length_b 9.104(3)
_cell_length_c 14.532(3)
_cell_angle_alpha 90.
_cell_angle_beta 90.
_cell_angle_gamma 90.
_cell_volume 625.11
_cell_formula_units_Z 2
_symmetry_space_group_name_H-M 'P n n m'
_symmetry_Int_Tables_number 58
_refine_ls_R_factor_all 0.032
loop_
_symmetry_equiv_pos_site_id
_symmetry_equiv_pos_as_xyz
1 'x+1/2, -y+1/2, z+1/2'
2 '-x+1/2, y+1/2, z+1/2'
3 'x, y, -z'
4 '-x, -y, -z'
5 '-x+1/2, y+1/2, -z+1/2'
6 'x+1/2, -y+1/2, -z+1/2'
7 '-x, -y, z'
8 'x, y, z'
loop_
_atom_type_symbol
_atom_type_oxidation_number
S0+ 0
loop_
_atom_site_label
_atom_site_type_symbol
_atom_site_symmetry_multiplicity
_atom_site_Wyckoff_symbol
_atom_site_fract_x
_atom_site_fract_y
_atom_site_fract_z
_atom_site_B_iso_or_equiv
_atom_site_occupancy
_atom_site_attached_hydrogens
S1 S0+ 4 e 0 0 0.22589(8) . 1. 0
S2 S0+ 8 h 0.24016(19) 0.12957(10) 0.14014(6) . 1. 0
S3 S0+ 8 h 0.01187(22) 0.31604(9) 0.11347(6) . 1. 0
S4 S0+ 4 g -.23207(27) 0.27172(16) 0 . 1. 0
loop_
_atom_site_aniso_label
_atom_site_aniso_type_symbol
_atom_site_aniso_U_11
_atom_site_aniso_U_22
_atom_site_aniso_U_33
_atom_site_aniso_U_12
_atom_site_aniso_U_13
_atom_site_aniso_U_23
S1 S0+ 0.0516(6) 0.0369(6) 0.0280(5) 0.0025(6) 0 0
S2 S0+ 0.0330(5) 0.0397(5) 0.0441(5) 0.0016(4) 0.0025(4) 0.0024(4)
S3 S0+ 0.0549(6) 0.0314(5) 0.0316(4) 0.0010(4) -.0002(4) -.0037(3)
S4 S0+ 0.0290(6) 0.0587(8) 0.0397(6) -.0006(6) 0 0
#End of TTdata_26463-ICSD