
#(C) 2017 by FIZ Karlsruhe - Leibniz Institute for Information Infrastructure.  All rights reserved.
data_152619-ICSD
_database_code_ICSD 152619
_audit_creation_date 2006-10-01
_chemical_name_systematic 'Scandium copper(I) selenide'
_chemical_formula_structural 'Sc Cu Se2'
_chemical_formula_sum 'Cu1 Sc1 Se2'
_exptl_crystal_density_diffrn 5.3
_publ_section_title
'Crystal structures of the Sc Cu Se2 and Sc3 Cu Sn3 Se11 compounds'
loop_
_citation_id
_citation_journal_full
_citation_year
_citation_journal_volume
_citation_page_first
_citation_page_last
_citation_journal_id_ASTM
primary 'Journal of the Australian Institute of Metals' 2005 393 174 179 JAMTAE
loop_
_publ_author_name
'Gulay, L.D.'
'Shemet, V.Ya.'
'Olekseyuk, I.D.'
_cell_length_a 6.71008(5)
_cell_length_b 3.8949(3)
_cell_length_c 12.7879(6)
_cell_angle_alpha 90.
_cell_angle_beta 90.281(6)
_cell_angle_gamma 90.
_cell_volume 334.21
_cell_formula_units_Z 4
_symmetry_space_group_name_H-M 'P 1 2 1'
_symmetry_Int_Tables_number 3
_refine_ls_R_factor_all 0.0839
loop_
_symmetry_equiv_pos_site_id
_symmetry_equiv_pos_as_xyz
1 '-x, y, -z'
2 'x, y, z'
loop_
_atom_type_symbol
_atom_type_oxidation_number
Sc3+ 3
Cu1+ 1
Se2- -2
loop_
_atom_site_label
_atom_site_type_symbol
_atom_site_symmetry_multiplicity
_atom_site_Wyckoff_symbol
_atom_site_fract_x
_atom_site_fract_y
_atom_site_fract_z
_atom_site_B_iso_or_equiv
_atom_site_occupancy
_atom_site_attached_hydrogens
Sc1 Sc3+ 1 a 0 0 0 0.3(3) 1. 0
Sc2 Sc3+ 1 b 0 0.080(4) 0.5 0.4(3) 1. 0
Sc3 Sc3+ 1 c 0.5 0.556(4) 0 0.4(3) 1. 0
Sc4 Sc3+ 1 d 0.5 0.485(5) 0.5 0.4(3) 1. 0
Cu1 Cu1+ 2 e 0.649(1) 0.021(4) 0.1906(4) 0.7(2) 0.823(6) 0
Cu2 Cu1+ 2 e 0.719(2) 0.047(7) 0.7146(8) 1.6(4) 0.496(6) 0
Cu3 Cu1+ 2 e 0.153(2) 0.503(4) 0.6875(4) 0.4(2) 0.722(6) 0
Se1 Se2- 2 e 0.6603(9) 0.025(2) 0.3801(3) 0.2(1) 1. 0
Se2 Se2- 2 e 0.6653(9) 0.983(2) 0.8838(3) 0.28(9) 1. 0
Se3 Se2- 2 e 0.1644(9) 0.500(2) 0.3815(3) 0.25(9) 1. 0
Se4 Se2- 2 e 0.1646(9) 0.532(2) 0.8796(3) 0.25(9) 1. 0
#End of TTdata_152619-ICSD