
#(C) 2017 by FIZ Karlsruhe - Leibniz Institute for Information Infrastructure.  All rights reserved.
data_414139-ICSD
_database_code_ICSD 414139
_audit_creation_date 2005-10-01
_audit_update_record 2008-02-01
_chemical_name_systematic 'Barium arsenide (1/2)'
_chemical_formula_structural 'Ba As2'
_chemical_formula_sum 'As2 Ba1'
_exptl_crystal_density_diffrn 5.48
_cell_measurement_temperature 245.
_publ_section_title

;
Neue Arsenide mit As(-)Ketten und -Ringen: Ba As2 und A(I) Ba2 As5 (A(I) = K,
Rb)
;
loop_
_citation_id
_citation_journal_full
_citation_year
_citation_journal_volume
_citation_page_first
_citation_page_last
_citation_journal_id_ASTM
primary 'Zeitschrift fuer Anorganische und Allgemeine Chemie (1950) (DE)' 2004
630 2490 2501 ZAACAB
loop_
_publ_author_name
'Emmerling, F.'
'Petri, D.'
'Roehr, C.'
_cell_length_a 6.5503(19)
_cell_length_b 12.532(4)
_cell_length_c 8.038(3)
_cell_angle_alpha 90.
_cell_angle_beta 127.747(15)
_cell_angle_gamma 90.
_cell_volume 521.74
_cell_formula_units_Z 6
_symmetry_space_group_name_H-M 'P 1 c 1'
_symmetry_Int_Tables_number 7
_refine_ls_R_factor_all 0.0822
loop_
_symmetry_equiv_pos_site_id
_symmetry_equiv_pos_as_xyz
1 'x, -y, z+1/2'
2 'x, y, z'
loop_
_atom_type_symbol
_atom_type_oxidation_number
Ba2+ 2
As1- -1
loop_
_atom_site_label
_atom_site_type_symbol
_atom_site_symmetry_multiplicity
_atom_site_Wyckoff_symbol
_atom_site_fract_x
_atom_site_fract_y
_atom_site_fract_z
_atom_site_B_iso_or_equiv
_atom_site_occupancy
_atom_site_attached_hydrogens
Ba1 Ba2+ 2 a 0.1063(3) 0.42148(14) 0.2499(3) 0.0139(4) 1 0
Ba2 Ba2+ 2 a 0.5572(3) 0.08433(14) 0.0494(3) 0.0156(4) 1 0
Ba3 Ba2+ 2 a 0.8283(4) 0.22845(15) 0.6776(3) 0.0194(4) 1 0
As1 As1- 2 a 0.0003(6) 0.0172(3) 0.0039(5) 0.0203(8) 1 0
As2 As1- 2 a 0.2045(7) 0.1498(3) 0.5365(5) 0.0178(7) 1 0
As3 As1- 2 a 0.2582(7) 0.1567(2) 0.2539(5) 0.0155(7) 1 0
As4 As1- 2 a 0.3873(7) 0.3449(3) 0.0000(5) 0.0156(7) 1 0
As5 As1- 2 a 0.5284(7) 0.6112(3) 0.2850(5) 0.0163(7) 1 0
As6 As1- 2 a 0.6756(6) 0.4254(2) 0.3432(5) 0.0143(7) 1 0
loop_
_atom_site_aniso_label
_atom_site_aniso_type_symbol
_atom_site_aniso_U_11
_atom_site_aniso_U_22
_atom_site_aniso_U_33
_atom_site_aniso_U_12
_atom_site_aniso_U_13
_atom_site_aniso_U_23
Ba1 Ba2+ 0.0098(9) 0.0189(9) 0.0108(9) 0.0014(8) 0.0052(8) -0.0008(7)
Ba2 Ba2+ 0.0137(10) 0.0210(9) 0.0131(9) 0.0053(8) 0.0088(8) 0.0022(7)
Ba3 Ba2+ 0.0139(9) 0.0255(10) 0.0148(10) 0.0006(9) 0.0067(8) -0.0030(8)
As1 As1- 0.0090(16) 0.0336(19) 0.0150(17) 0.0008(15) 0.0056(14) -0.0061(14)
As2 As1- 0.0183(17) 0.0228(16) 0.0149(17) 0.0011(15) 0.0116(15) -0.0031(14)
As3 As1- 0.0163(17) 0.0154(14) 0.0185(17) -0.0040(14) 0.0125(15) -0.0028(13)
As4 As1- 0.0144(16) 0.0162(15) 0.0154(17) -0.0025(14) 0.0086(14) -0.0009(13)
As5 As1- 0.0117(15) 0.0259(16) 0.0107(15) -0.0013(15) 0.0066(14) 0.0016(13)
As6 As1- 0.0095(15) 0.0218(16) 0.0128(17) 0.0025(13) 0.0074(14) 0.0003(12)
#End of TTdata_414139-ICSD