
#(C) 2017 by FIZ Karlsruhe - Leibniz Institute for Information Infrastructure.  All rights reserved.
data_89414-ICSD
_database_code_ICSD 89414
_audit_creation_date 2001-07-16
_audit_update_record 2010-02-01
_chemical_name_systematic 'Silicon - VI'
_chemical_formula_structural Si
_chemical_formula_sum Si1
_chemical_name_structure_type Si(oS16)
_exptl_crystal_density_diffrn 4.06
_cell_measurement_pressure 38400000.
_publ_section_title 'Crystal structure of the high-pressure phase silicon VI'
loop_
_citation_id
_citation_journal_full
_citation_year
_citation_journal_volume
_citation_page_first
_citation_page_last
_citation_journal_id_ASTM
primary 'Physical Review Letters' 1999 82 1197 1200 PRLTAO
loop_
_publ_author_name
'Hanfland, M.'
'Schwarz, U.'
'Syassen, K.'
'Takemura, K.'
_cell_length_a 8.0242(8)
_cell_length_b 4.7961(5)
_cell_length_c 4.7760(5)
_cell_angle_alpha 90.
_cell_angle_beta 90.
_cell_angle_gamma 90.
_cell_volume 183.8
_cell_formula_units_Z 16
_symmetry_space_group_name_H-M 'C m c a'
_symmetry_Int_Tables_number 64
_refine_ls_R_factor_all 0.05
loop_
_symmetry_equiv_pos_site_id
_symmetry_equiv_pos_as_xyz
1 '-x, -y+1/2, z+1/2'
2 '-x, y+1/2, -z+1/2'
3 '-x, y, z'
4 '-x, -y, -z'
5 'x, y+1/2, -z+1/2'
6 'x, -y+1/2, z+1/2'
7 'x, -y, -z'
8 'x, y, z'
9 '-x+1/2, -y, z+1/2'
10 '-x+1/2, y, -z+1/2'
11 '-x+1/2, y+1/2, z'
12 '-x+1/2, -y+1/2, -z'
13 'x+1/2, y, -z+1/2'
14 'x+1/2, -y, z+1/2'
15 'x+1/2, -y+1/2, -z'
16 'x+1/2, y+1/2, z'
loop_
_atom_type_symbol
_atom_type_oxidation_number
Si0+ 0
loop_
_atom_site_label
_atom_site_type_symbol
_atom_site_symmetry_multiplicity
_atom_site_Wyckoff_symbol
_atom_site_fract_x
_atom_site_fract_y
_atom_site_fract_z
_atom_site_B_iso_or_equiv
_atom_site_occupancy
_atom_site_attached_hydrogens
Si1 Si0+ 8 f 0 0.173(5) 0.328(5) . 1. 0
Si2 Si0+ 8 d 0.218(5) 0 0 . 1. 0
#End of TTdata_89414-ICSD