
#(C) 2017 by FIZ Karlsruhe - Leibniz Institute for Information Infrastructure.  All rights reserved.
data_41259-ICSD
_database_code_ICSD 41259
_audit_creation_date 1999-11-30
_audit_update_record 2006-10-01
_chemical_name_systematic 'Plutonium - HP-form'
_chemical_formula_structural Pu
_chemical_formula_sum Pu1
_exptl_crystal_density_diffrn 28.18
_cell_measurement_pressure 55000000.
_publ_section_title 'Pressure induced phase transition in alpha-Pu'
loop_
_citation_id
_citation_journal_full
_citation_year
_citation_journal_volume
_citation_page_first
_citation_page_last
_citation_journal_id_ASTM
primary 'Journal of Alloys and Compounds' 1993 190 237 242 JALCEU
loop_
_publ_author_name
'Dabos-Seignon, S.'
'Dancausse, J.P.'
'Gering, E.'
'Heathman, S.'
'Benedict, U.'
_cell_length_a 5.437
_cell_length_b 5.437
_cell_length_c 4.493
_cell_angle_alpha 90.
_cell_angle_beta 90.
_cell_angle_gamma 120.
_cell_volume 115.02
_cell_formula_units_Z 8
_symmetry_space_group_name_H-M 'P 63/m'
_symmetry_Int_Tables_number 176
loop_
_symmetry_equiv_pos_site_id
_symmetry_equiv_pos_as_xyz
1 '-x+y, -x, -z+1/2'
2 '-y, x-y, -z+1/2'
3 'x, y, -z+1/2'
4 'x-y, x, -z'
5 'y, -x+y, -z'
6 '-x, -y, -z'
7 'x-y, x, z+1/2'
8 'y, -x+y, z+1/2'
9 '-x, -y, z+1/2'
10 '-x+y, -x, z'
11 '-y, x-y, z'
12 'x, y, z'
loop_
_atom_type_symbol
_atom_type_oxidation_number
Pu0+ 0
loop_
_atom_site_label
_atom_site_type_symbol
_atom_site_symmetry_multiplicity
_atom_site_Wyckoff_symbol
_atom_site_fract_x
_atom_site_fract_y
_atom_site_fract_z
_atom_site_B_iso_or_equiv
_atom_site_occupancy
_atom_site_attached_hydrogens
Pu1 Pu0+ 2 d 0.6667 0.3333 0.25 . 1. 0
Pu2 Pu0+ 6 h 0.2 0.333 0.25 . 1. 0
#End of TTdata_41259-ICSD