
#(C) 2018 by FIZ Karlsruhe - Leibniz Institute for Information Infrastructure.  All rights reserved.
data_8204-ICSD
_database_code_ICSD 8204
_audit_creation_date 1980-01-01
_chemical_name_systematic 'Dipotassium tetratantalum tetrafluoride oxide'
_chemical_formula_structural 'K2 Ta4 F4 O9'
_chemical_formula_sum 'F4 K2 O9 Ta4'
_exptl_crystal_density_diffrn 5.95
_publ_section_title

;
Structure cristalline de l'oxyfluorure de tantale et de potassium, K2 Ta4 F4
O9
;
loop_
_citation_id
_citation_journal_full
_citation_year
_citation_journal_volume
_citation_page_first
_citation_page_last
_citation_journal_id_ASTM
primary

;
Acta Crystallographica, Section B: Structural Crystallography and Crystal
Chemistry
; 1979 35 1983 1986 ACBCAR
loop_
_publ_author_name
'Boukhari, A.'
'Chaminade, J.P.'
'Vlasse, M.'
'Pouchard, M.'
_cell_length_a 15.936(8)
_cell_length_b 15.936(8)
_cell_length_c 3.892(5)
_cell_angle_alpha 90.
_cell_angle_beta 90.
_cell_angle_gamma 120.
_cell_volume 855.98
_cell_formula_units_Z 3
_symmetry_space_group_name_H-M 'P 6'
_symmetry_Int_Tables_number 168
_refine_ls_R_factor_all 0.045
loop_
_symmetry_equiv_pos_site_id
_symmetry_equiv_pos_as_xyz
1 'x-y, x, z'
2 'y, -x+y, z'
3 '-x, -y, z'
4 '-x+y, -x, z'
5 '-y, x-y, z'
6 'x, y, z'
loop_
_atom_type_symbol
_atom_type_oxidation_number
Ta5+ 5
K1+ 1
O2- -2
F1- -1
loop_
_atom_site_label
_atom_site_type_symbol
_atom_site_symmetry_multiplicity
_atom_site_Wyckoff_symbol
_atom_site_fract_x
_atom_site_fract_y
_atom_site_fract_z
_atom_site_B_iso_or_equiv
_atom_site_occupancy
_atom_site_attached_hydrogens
Ta1 Ta5+ 6 d 0.2634(1) 0.1734(1) 0.5 . 1. 0
Ta2 Ta5+ 6 d 0.3479(1) 0.4368(1) 0.5150(13) . 1. 0
K1 K1+ 6 d 0.1790(7) 0.4965(1) 0.031(7) . 1. 0
O1 O2- 6 d 0.187(1) 0.035(1) 0.579(5) 0.9 0.692 0
O2 O2- 6 d 0.034(1) 0.349(1) 0.568(6) 0.7 0.692 0
O3 O2- 6 d 0.220(1) 0.388(1) 0.576(4) 0.2 0.692 0
O4 O2- 6 d 0.374(1) 0.569(1) 0.566(5) 0.9 0.692 0
O5 O2- 6 d 0.454(2) 0.093(2) 0.047(29) 2.9 0.692 0
O6 O2- 6 d 0.273(2) 0.178(2) 0.031(18) 3.1 0.692 0
O7 O2- 3 c 0 0.5 0.586(8) 1. 0.692 0
F1 F1- 6 d 0.187(1) 0.035(1) 0.579(5) 0.9 0.308 0
F2 F1- 6 d 0.034(1) 0.349(1) 0.568(6) 0.7 0.308 0
F3 F1- 6 d 0.220(1) 0.388(1) 0.576(4) 0.2 0.308 0
F4 F1- 6 d 0.374(1) 0.569(1) 0.566(5) 0.9 0.308 0
F5 F1- 6 d 0.454(2) 0.093(2) 0.047(29) 2.9 0.308 0
F6 F1- 6 d 0.273(2) 0.178(2) 0.031(18) 3.1 0.308 0
F7 F1- 3 c 0 0.5 0.586(8) 1. 0.308 0
loop_
_atom_site_aniso_label
_atom_site_aniso_type_symbol
_atom_site_aniso_beta_11
_atom_site_aniso_beta_22
_atom_site_aniso_beta_33
_atom_site_aniso_beta_12
_atom_site_aniso_beta_13
_atom_site_aniso_beta_23
Ta1 Ta5+ 0.00119(3) 0.00081(3) 0.02975(73) 0.00047(2) -.00038(56) 0.00065(47)
Ta2 Ta5+ 0.00198(4) 0.00073(3) 0.03477(78) 0.00066(3) -.00019(50) 0.00117(45)
K1 K1+ 0.00737(55) 0.00342(32) 0.0212(54) 0.00315(36) 0.0016(32) -.0009(24)
#End of TTdata_8204-ICSD