
#(C) 2017 by FIZ Karlsruhe - Leibniz Institute for Information Infrastructure.  All rights reserved.
data_65497-ICSD
_database_code_ICSD 65497
_audit_creation_date 1990-06-08
_audit_update_record 1999-06-02
_chemical_name_systematic 'Silicon dioxide'
_chemical_formula_structural 'Si O2'
_chemical_formula_sum 'O2 Si1'
_chemical_name_structure_type Ferrierite-frame
_chemical_name_mineral 'Ferrierite( Al-free, dimethylamine-loaded)'
_exptl_crystal_density_diffrn 1.92
_publ_section_title

;
One-step synthesis, properties and crystal structure of aluminium-free
ferrierite
;
loop_
_citation_id
_citation_journal_full
_citation_year
_citation_journal_volume
_citation_page_first
_citation_page_last
_citation_journal_id_ASTM
primary Zeolites 1987 7 442 445 ZEOLD3
loop_
_publ_author_name
'Gies, H.'
'Gunawardane, R.P.'
_cell_length_a 18.5570(60)
_cell_length_b 13.889(3)
_cell_length_c 7.249(9)
_cell_angle_alpha 90.
_cell_angle_beta 90.
_cell_angle_gamma 90.
_cell_volume 1868.34
_cell_formula_units_Z 36
_symmetry_space_group_name_H-M 'I m m m'
_symmetry_Int_Tables_number 71
_refine_ls_R_factor_all 0.106
loop_
_symmetry_equiv_pos_site_id
_symmetry_equiv_pos_as_xyz
1 'x, y, -z'
2 'x, -y, z'
3 '-x, y, z'
4 '-x, -y, -z'
5 '-x, -y, z'
6 '-x, y, -z'
7 'x, -y, -z'
8 'x, y, z'
9 'x+1/2, y+1/2, -z+1/2'
10 'x+1/2, -y+1/2, z+1/2'
11 '-x+1/2, y+1/2, z+1/2'
12 '-x+1/2, -y+1/2, -z+1/2'
13 '-x+1/2, -y+1/2, z+1/2'
14 '-x+1/2, y+1/2, -z+1/2'
15 'x+1/2, -y+1/2, -z+1/2'
16 'x+1/2, y+1/2, z+1/2'
loop_
_atom_type_symbol
_atom_type_oxidation_number
Si4+ 4
O2- -2
loop_
_atom_site_label
_atom_site_type_symbol
_atom_site_symmetry_multiplicity
_atom_site_Wyckoff_symbol
_atom_site_fract_x
_atom_site_fract_y
_atom_site_fract_z
_atom_site_B_iso_or_equiv
_atom_site_occupancy
_atom_site_attached_hydrogens
Si1 Si4+ 16 o 0.324(1) 0.205(1) 0.215(3) 0.041(6) 1. 0
Si2 Si4+ 8 m 0.273(1) 0 0.302(3) 0.001(5) 1. 0
Si3 Si4+ 8 n 0.085(1) 0.203(2) 0 0.005(5) 1. 0
Si4 Si4+ 4 e 0.152(1) 0 0 0.002(7) 1. 0
O1 O2- 4 f 0.246(5) 0 0.5 0.114(42) 1. 0
O2 O2- 4 g 0 0.223(8) 0 0.081(33) 1. 0
O3 O2- 8 n 0.102(3) 0.095(3) 0 0.025(14) 1. 0
O4 O2- 8 k 0.25 0.25 0.25 0.029(15) 1. 0
O5 O2- 8 m 0.198(3) 0 0.173(7) 0.047(17) 1. 0
O6 O2- 8 n 0.156(4) 0.285(7) 0.5 0.135(34) 1. 0
O7 O2- 16 o 0.114(2) 0.254(3) 0.174(4) 0.061(13) 1. 0
O8 O2- 16 o 0.317(2) 0.093(2) 0.238(5) 0.041(11) 1. 0
#End of TTdata_65497-ICSD