
#(C) 2017 by FIZ Karlsruhe - Leibniz Institute for Information Infrastructure.  All rights reserved.
data_43212-ICSD
_database_code_ICSD 43212
_audit_creation_date 2000-07-15
_audit_update_record 2017-08-01
_chemical_name_systematic 'Polonium - beta'
_chemical_formula_structural Po
_chemical_formula_sum Po1
_chemical_name_structure_type Po(hR1)
_exptl_crystal_density_diffrn 9.45
_publ_section_title

;
The structures of polonium and its compounds - I. Alpha- and beta-polonium
metal
;
loop_
_citation_id
_citation_journal_full
_citation_year
_citation_journal_volume
_citation_page_first
_citation_page_last
_citation_journal_id_ASTM
primary 'Journal of Inorganic and Nuclear Chemistry' 1966 28 1837 1846 JINCAO
loop_
_publ_author_name
'Sando, R.J. de'
'Lange, R.C.'
_cell_length_a 3.368(1)
_cell_length_b 3.368
_cell_length_c 3.368
_cell_angle_alpha 98.24
_cell_angle_beta 98.24
_cell_angle_gamma 98.24
_cell_volume 36.89
_cell_formula_units_Z 1
_symmetry_space_group_name_H-M 'R -3 m R'
_symmetry_Int_Tables_number 166
loop_
_symmetry_equiv_pos_site_id
_symmetry_equiv_pos_as_xyz
1 '-z, -y, -x'
2 '-z, -x, -y'
3 '-x, -z, -y'
4 '-y, -z, -x'
5 '-y, -x, -z'
6 '-x, -y, -z'
7 'z, y, x'
8 'z, x, y'
9 'x, z, y'
10 'y, z, x'
11 'y, x, z'
12 'x, y, z'
loop_
_atom_type_symbol
_atom_type_oxidation_number
Po0+ 0
loop_
_atom_site_label
_atom_site_type_symbol
_atom_site_symmetry_multiplicity
_atom_site_Wyckoff_symbol
_atom_site_fract_x
_atom_site_fract_y
_atom_site_fract_z
_atom_site_B_iso_or_equiv
_atom_site_occupancy
_atom_site_attached_hydrogens
Po1 Po0+ 1 a 0 0 0 . 1. 0
#End of TTdata_43212-ICSD