
#(C) 2017 by FIZ Karlsruhe - Leibniz Institute for Information Infrastructure.  All rights reserved.
data_2795-ICSD
_database_code_ICSD 2795
_audit_creation_date 1980-01-01
_audit_update_record 2005-10-01
_chemical_name_systematic 'Gallium - gamma'
_chemical_formula_structural Ga
_chemical_formula_sum Ga1
_exptl_crystal_density_diffrn 6.21
_cell_measurement_temperature 223.
_publ_section_title 'Structure cristalline de Ga-gamma'
loop_
_citation_id
_citation_journal_full
_citation_year
_citation_journal_volume
_citation_page_first
_citation_page_last
_citation_journal_id_ASTM
primary 'Acta Crystallographica B (24,1968-38,1982)' 1972 28 1974 1975 ACBCAR
loop_
_publ_author_name
'Bosio, L.'
'Curien, H.'
'Dupont, M.'
'Rimsky, A.'
_cell_length_a 10.593(2)
_cell_length_b 13.523(3)
_cell_length_c 5.203(1)
_cell_angle_alpha 90.
_cell_angle_beta 90.
_cell_angle_gamma 90.
_cell_volume 745.33
_cell_formula_units_Z 40
_symmetry_space_group_name_H-M 'C m c m'
_symmetry_Int_Tables_number 63
_refine_ls_R_factor_all 0.09
loop_
_symmetry_equiv_pos_site_id
_symmetry_equiv_pos_as_xyz
1 '-x, y, -z+1/2'
2 '-x, -y, z+1/2'
3 '-x, y, z'
4 '-x, -y, -z'
5 'x, -y, z+1/2'
6 'x, y, -z+1/2'
7 'x, -y, -z'
8 'x, y, z'
9 '-x+1/2, y+1/2, -z+1/2'
10 '-x+1/2, -y+1/2, z+1/2'
11 '-x+1/2, y+1/2, z'
12 '-x+1/2, -y+1/2, -z'
13 'x+1/2, -y+1/2, z+1/2'
14 'x+1/2, y+1/2, -z+1/2'
15 'x+1/2, -y+1/2, -z'
16 'x+1/2, y+1/2, z'
loop_
_atom_type_symbol
_atom_type_oxidation_number
Ga0+ 0
loop_
_atom_site_label
_atom_site_type_symbol
_atom_site_symmetry_multiplicity
_atom_site_Wyckoff_symbol
_atom_site_fract_x
_atom_site_fract_y
_atom_site_fract_z
_atom_site_B_iso_or_equiv
_atom_site_occupancy
_atom_site_attached_hydrogens
Ga1 Ga0+ 4 c 0 0.0009 0.25 . 1. 0
Ga2 Ga0+ 8 g 0.2794(6) 0.0504(5) 0.25 . 1. 0
Ga3 Ga0+ 8 f 0 0.3947(6) 0 . 1. 0
Ga4 Ga0+ 8 g 0.1256(5) 0.2062(5) 0.25 . 1. 0
Ga5 Ga0+ 8 g 0.2718(5) 0.3612(5) 0.25 . 1. 0
Ga6 Ga0+ 4 c 0.5 0.2853(8) 0.25 . 1. 0
loop_
_atom_site_aniso_label
_atom_site_aniso_type_symbol
_atom_site_aniso_beta_11
_atom_site_aniso_beta_22
_atom_site_aniso_beta_33
_atom_site_aniso_beta_12
_atom_site_aniso_beta_13
_atom_site_aniso_beta_23
Ga1 Ga0+ 0.004(1) 0.0028(7) 0.017(4) 0 0 0
Ga2 Ga0+ 0.0038(8) 0.0030(6) 0.023(4) 0.0004(4) 0 0
Ga3 Ga0+ 0.0081(7) 0.0042(5) 0.025(3) 0 0.0003(3) 0
Ga4 Ga0+ 0.0034(6) 0.0003(5) 0.021(3) 0.0001(4) 0 0
Ga5 Ga0+ 0.0022(6) 0.0004(6) 0.020(2) 0.0003(4) 0 0
Ga6 Ga0+ 0.0024(8) 0.0011(6) 0.019(3) 0 0 0
#End of TTdata_2795-ICSD