
#(C) 2018 by FIZ Karlsruhe - Leibniz Institute for Information Infrastructure.  All rights reserved.
data_80308-ICSD
_database_code_ICSD 80308
_audit_creation_date 1996-10-14
_chemical_name_systematic 'Praseodymium oxide (9/16)'
_chemical_formula_structural 'Pr9 O16'
_chemical_formula_sum 'O16 Pr9'
_exptl_crystal_density_diffrn 6.81
_publ_section_title

;
Structures in the oxygen-deficient fluorite-related Rn O2n-2 homologous series
: Pr9 O16
;
loop_
_citation_id
_citation_journal_full
_citation_year
_citation_journal_volume
_citation_page_first
_citation_page_last
_citation_journal_id_ASTM
primary 'Journal of Solid State Chemistry' 1995 118 133 140 JSSCBI
loop_
_publ_author_name
'Zhang, J.'
'von Dreele, R.B.'
'Eyring, L.'
_cell_length_a 6.7396(8)
_cell_length_b 8.711(1)
_cell_length_c 6.6726(8)
_cell_angle_alpha 97.424(1)
_cell_angle_beta 99.973(1)
_cell_angle_gamma 75.301(1)
_cell_volume 371.7
_cell_formula_units_Z 1
_symmetry_space_group_name_H-M 'P -1'
_symmetry_Int_Tables_number 2
_refine_ls_R_factor_all 0.033
loop_
_symmetry_equiv_pos_site_id
_symmetry_equiv_pos_as_xyz
1 '-x, -y, -z'
2 'x, y, z'
loop_
_atom_type_symbol
_atom_type_oxidation_number
Pr4+ 4
Pr3+ 3.667
Pr3+ 3
O2- -2
loop_
_atom_site_label
_atom_site_type_symbol
_atom_site_symmetry_multiplicity
_atom_site_Wyckoff_symbol
_atom_site_fract_x
_atom_site_fract_y
_atom_site_fract_z
_atom_site_B_iso_or_equiv
_atom_site_occupancy
_atom_site_attached_hydrogens
Pr1 Pr4+ 1 a 0 0 0 0.0049(1) 1. 0
Pr2 Pr3+ 2 i 0.2326(4) 0.1006(3) 0.5871(3) 0.0049(1) 1. 0
Pr3 Pr3+ 2 i 0.4740(4) 0.2281(2) 0.1121(4) 0.0049(1) 1. 0
Pr4 Pr3+ 2 i 0.8754(3) 0.4698(3) 0.2312(4) 0.0049(1) 1. 0
Pr5 Pr3+ 2 i 0.6796(4) 0.3321(3) 0.6631(4) 0.0049(1) 1. 0
O1 O2- 2 i 0.8089(3) 0.2555(2) 0.0348(3) 0.0093(1) 1. 0
O2 O2- 2 i 0.1834(3) 0.4418(2) 0.1300(3) 0.0093(1) 1. 0
O3 O2- 2 i 0.2938(3) 0.0408(2) 0.9414(3) 0.0093(1) 1. 0
O4 O2- 2 i 0.5924(3) 0.4251(2) 0.3271(3) 0.0093(1) 1. 0
O5 O2- 2 i 0.4977(3) 0.1457(2) 0.4048(3) 0.0093(1) 1. 0
O6 O2- 2 i 0.0016(3) 0.3464(2) 0.5344(3) 0.0093(1) 1. 0
O7 O2- 2 i 0.9099(3) 0.0589(2) 0.6787(3) 0.0093(1) 1. 0
O8 O2- 2 i 0.3904(3) 0.2947(2) 0.8015(3) 0.0093(1) 1. 0
#End of TTdata_80308-ICSD