
#(C) 2017 by FIZ Karlsruhe - Leibniz Institute for Information Infrastructure.  All rights reserved.
data_245650-ICSD
_database_code_ICSD 245650
_audit_creation_date 2008-08-01
_chemical_name_systematic 'Calcium zinc gallium oxide (14/6/10/35.25)'
_chemical_formula_structural 'Ca14 (Zn6 Ga10) O35.25'
_chemical_formula_sum 'Ca14 Ga10 O35.25 Zn6'
_exptl_crystal_density_diffrn 4.31
_publ_section_title
'Composition-induced phase transition in Ca14 Zn(6-x) Ga(10+x) O(35+x/2)'
loop_
_citation_id
_citation_journal_full
_citation_year
_citation_journal_volume
_citation_page_first
_citation_page_last
_citation_journal_id_ASTM
primary 'Journal of Solid State Chemistry' 2007 180 1882 1888 JSSCBI
loop_
_publ_author_name
'Istomin, S.Ya.'
'Chernov, S.V.'
'Antipov, E.V.'
'Dobrovolsky, Yu.A.'
_cell_length_a 15.0556(1)
_cell_length_b 15.0556(1)
_cell_length_c 15.0556(1)
_cell_angle_alpha 90.
_cell_angle_beta 90.
_cell_angle_gamma 90.
_cell_volume 3412.67
_cell_formula_units_Z 4
_symmetry_space_group_name_H-M 'F 4 3 2'
_symmetry_Int_Tables_number 209
_refine_ls_R_factor_all 0.0346
loop_
_symmetry_equiv_pos_site_id
_symmetry_equiv_pos_as_xyz
1 '-y, x, z'
2 'z, -x, -y'
3 'y, x, -z'
4 '-z, -x, y'
5 'y, -x, z'
6 '-z, x, -y'
7 '-y, -x, -z'
8 'z, x, y'
9 'z, -y, x'
10 '-y, z, -x'
11 '-z, y, x'
12 'y, -z, -x'
13 'z, y, -x'
14 '-y, -z, x'
15 '-z, -y, -x'
16 'y, z, x'
17 'x, z, -y'
18 '-x, -y, z'
19 'x, -z, y'
20 '-x, y, -z'
21 '-x, z, y'
22 'x, -y, -z'
23 '-x, -z, -y'
24 'x, y, z'
25 '-y, x+1/2, z+1/2'
26 'z, -x+1/2, -y+1/2'
27 'y, x+1/2, -z+1/2'
28 '-z, -x+1/2, y+1/2'
29 'y, -x+1/2, z+1/2'
30 '-z, x+1/2, -y+1/2'
31 '-y, -x+1/2, -z+1/2'
32 'z, x+1/2, y+1/2'
33 'z, -y+1/2, x+1/2'
34 '-y, z+1/2, -x+1/2'
35 '-z, y+1/2, x+1/2'
36 'y, -z+1/2, -x+1/2'
37 'z, y+1/2, -x+1/2'
38 '-y, -z+1/2, x+1/2'
39 '-z, -y+1/2, -x+1/2'
40 'y, z+1/2, x+1/2'
41 'x, z+1/2, -y+1/2'
42 '-x, -y+1/2, z+1/2'
43 'x, -z+1/2, y+1/2'
44 '-x, y+1/2, -z+1/2'
45 '-x, z+1/2, y+1/2'
46 'x, -y+1/2, -z+1/2'
47 '-x, -z+1/2, -y+1/2'
48 'x, y+1/2, z+1/2'
49 '-y+1/2, x, z+1/2'
50 'z+1/2, -x, -y+1/2'
51 'y+1/2, x, -z+1/2'
52 '-z+1/2, -x, y+1/2'
53 'y+1/2, -x, z+1/2'
54 '-z+1/2, x, -y+1/2'
55 '-y+1/2, -x, -z+1/2'
56 'z+1/2, x, y+1/2'
57 'z+1/2, -y, x+1/2'
58 '-y+1/2, z, -x+1/2'
59 '-z+1/2, y, x+1/2'
60 'y+1/2, -z, -x+1/2'
61 'z+1/2, y, -x+1/2'
62 '-y+1/2, -z, x+1/2'
63 '-z+1/2, -y, -x+1/2'
64 'y+1/2, z, x+1/2'
65 'x+1/2, z, -y+1/2'
66 '-x+1/2, -y, z+1/2'
67 'x+1/2, -z, y+1/2'
68 '-x+1/2, y, -z+1/2'
69 '-x+1/2, z, y+1/2'
70 'x+1/2, -y, -z+1/2'
71 '-x+1/2, -z, -y+1/2'
72 'x+1/2, y, z+1/2'
73 '-y+1/2, x+1/2, z'
74 'z+1/2, -x+1/2, -y'
75 'y+1/2, x+1/2, -z'
76 '-z+1/2, -x+1/2, y'
77 'y+1/2, -x+1/2, z'
78 '-z+1/2, x+1/2, -y'
79 '-y+1/2, -x+1/2, -z'
80 'z+1/2, x+1/2, y'
81 'z+1/2, -y+1/2, x'
82 '-y+1/2, z+1/2, -x'
83 '-z+1/2, y+1/2, x'
84 'y+1/2, -z+1/2, -x'
85 'z+1/2, y+1/2, -x'
86 '-y+1/2, -z+1/2, x'
87 '-z+1/2, -y+1/2, -x'
88 'y+1/2, z+1/2, x'
89 'x+1/2, z+1/2, -y'
90 '-x+1/2, -y+1/2, z'
91 'x+1/2, -z+1/2, y'
92 '-x+1/2, y+1/2, -z'
93 '-x+1/2, z+1/2, y'
94 'x+1/2, -y+1/2, -z'
95 '-x+1/2, -z+1/2, -y'
96 'x+1/2, y+1/2, z'
loop_
_atom_type_symbol
_atom_type_oxidation_number
Ca2+ 2
Ga3+ 3
Zn2+ 2
Ga3+ 3
Zn2+ 2
Ga3+ 3
Zn2+ 2
Ga3+ 3
Zn2+ 2
O2- -2
loop_
_atom_site_label
_atom_site_type_symbol
_atom_site_symmetry_multiplicity
_atom_site_Wyckoff_symbol
_atom_site_fract_x
_atom_site_fract_y
_atom_site_fract_z
_atom_site_B_iso_or_equiv
_atom_site_occupancy
_atom_site_attached_hydrogens
Ca1 Ca2+ 24 e 0.2114(1) 0 0 0.0202(6) 1. 0
Ca2 Ca2+ 32 f 0.38806(6) 0.38806(6) 0.38806(6) 0.0153(6) 1. 0
Ga1 Ga3+ 32 f 0.1726(1) 0.1726(1) 0.1726(1) 0.0295(5) 0.425(3) 0
Zn1 Zn2+ 32 f 0.1726(1) 0.1726(1) 0.1726(1) 0.0295(5) 0.212(3) 0
Ga2 Ga3+ 32 f 0.1422(2) 0.1422(2) 0.1422(2) 0.0156(5) 0.242(3) 0
Zn2 Zn2+ 32 f 0.1422(2) 0.1422(2) 0.1422(2) 0.0156(5) 0.121(3) 0
Ga3 Ga3+ 4 a 0 0 0 0.0231(10) 0.667 0
Zn3 Zn2+ 4 a 0 0 0 0.0231(10) 0.333 0
Ga4 Ga3+ 24 d 0 0.25 0.25 0.0194(4) 0.667 0
Zn4 Zn2+ 24 d 0 0.25 0.25 0.0194(4) 0.333 0
Zn5 Zn2+ 4 b 0.5 0.5 0.5 0.0053(9) 1. 0
O1 O2- 8 c 0.25 0.25 0.25 0.025 0.625 0
O2 O2- 24 e 0.3681(3) 0 0 0.0131(8) 1. 0
O3 O2- 32 f 0.0711(4) 0.0711(4) 0.0711(4) 0.025 0.5 0
O4 O2- 96 j 0.2450(2) 0.1472(2) 0.0701(2) 0.0131(8) 1. 0
#End of TTdata_245650-ICSD