#------------------------------------------------------------------------------
#$Date: 2016-02-14 09:26:36 -0500 (Sun, 14 Feb 2016) $
#$Revision: 176435 $
#$URL: svn://www.crystallography.net/cod/cif/1/50/93/1509367.cif $
#------------------------------------------------------------------------------
#
# This file is available in the Crystallography Open Database (COD),
# http://www.crystallography.net/
#
# All data on this site have been placed in the public domain by the
# contributors.
#
data_1509367
loop_
_publ_author_name
'Guittard, M.'
'Julien-Pouzol, M.'
_publ_section_title
;
 Les phases cubiques de type Th3P4 dans les systemes Cu2Se-L2Se3 et
 Ag2Se-L2Se3
;
_journal_name_full
'Bulletin de la Societe Chimique de France (Vol=Year)'
_journal_page_first              2293
_journal_page_last               2295
_journal_volume                  1968
_journal_year                    1968
_chemical_formula_sum            'Ag Gd5 Se8'
_chemical_name_systematic        'Ag Gd5 Se8'
_space_group_IT_number           220
_symmetry_space_group_name_Hall  'I -4bd 2c 3'
_symmetry_space_group_name_H-M   'I -4 3 d'
_cell_angle_alpha                90
_cell_angle_beta                 90
_cell_angle_gamma                90
_cell_formula_units_Z            2
_cell_length_a                   8.74
_cell_length_b                   8.74
_cell_length_c                   8.74
_cell_volume                     667.628
_citation_journal_id_ASTM        BSCFAS
_cod_data_source_file            silver1-2_290.cif
_cod_data_source_block           Ag1Gd5Se8
_cod_original_cell_volume        667.6276
_cod_original_formula_sum        'Ag1 Gd5 Se8'
_cod_database_code               1509367
loop_
_symmetry_equiv_pos_as_xyz
x,y,z
y+1/4,-x+3/4,-z+1/4
-x,-y+1/2,z
-y+3/4,x+3/4,-z+1/4
x,-y,-z+1/2
-y+1/4,-x+3/4,z+3/4
-x,y+1/2,-z+1/2
y+3/4,x+3/4,z+3/4
z,x,y
x+1/4,-z+3/4,-y+1/4
-z,-x+1/2,y
-x+3/4,z+3/4,-y+1/4
z,-x,-y+1/2
-x+1/4,-z+3/4,y+3/4
-z,x+1/2,-y+1/2
x+3/4,z+3/4,y+3/4
y,z,x
y,-z,-x+1/2
-z+1/4,-y+3/4,x+3/4
-y,z+1/2,-x+1/2
z+1/4,y+1/4,x+1/4
-y+1/2,-z,x+1/2
-z+1/4,y+1/4,-x+3/4
z+3/4,-y+1/4,-x+3/4
x+1/2,y+1/2,z+1/2
y+3/4,-x+5/4,-z+3/4
-x+1/2,-y+1,z+1/2
-y+5/4,x+5/4,-z+3/4
x+1/2,-y+1/2,-z+1
-y+3/4,-x+5/4,z+5/4
-x+1/2,y+1,-z+1
y+5/4,x+5/4,z+5/4
z+1/2,x+1/2,y+1/2
x+3/4,-z+5/4,-y+3/4
-z+1/2,-x+1,y+1/2
-x+5/4,z+5/4,-y+3/4
z+1/2,-x+1/2,-y+1
-x+3/4,-z+5/4,y+5/4
-z+1/2,x+1,-y+1
x+5/4,z+5/4,y+5/4
y+1/2,z+1/2,x+1/2
y+1/2,-z+1/2,-x+1
-z+3/4,-y+5/4,x+5/4
-y+1/2,z+1,-x+1
z+3/4,y+3/4,x+3/4
-y+1,-z+1/2,x+1
-z+3/4,y+3/4,-x+5/4
z+5/4,-y+3/4,-x+5/4
loop_
_atom_site_label
_atom_site_type_symbol
_atom_site_fract_x
_atom_site_fract_y
_atom_site_fract_z
_atom_site_occupancy
_atom_site_U_iso_or_equiv
Se1 Se-2 0.083 0.083 0.083 1 0.0
Ag1 Ag+1 0.375 0 0.25 0.167 0.0
Gd1 Gd+3 0.375 0 0.25 0.833 0.0
