
#(C) 2018 by FIZ Karlsruhe - Leibniz Institute for Information Infrastructure.  All rights reserved.
data_150267-ICSD
_database_code_ICSD 150267
_audit_creation_date 2006-04-01
_chemical_name_systematic 'Cobalt zinc (1.76/13.24) - delta'
_chemical_formula_structural 'Co1.76 Zn13.24'
_chemical_formula_sum 'Co1.76 Zn13.24'
_exptl_crystal_density_diffrn 7.52
_publ_section_title
'Preparation and double-helix icosahedra structure of delta-(Co2 Zn15)'
loop_
_citation_id
_citation_journal_full
_citation_year
_citation_journal_volume
_citation_page_first
_citation_page_last
_citation_journal_id_ASTM
primary 'Journal of Solid State Chemistry' 2002 166 53 57 JSSCBI
loop_
_publ_author_name
'Bostroem, M.'
'Lidin, S.'
_cell_length_a 11.292(2)
_cell_length_b 11.292(2)
_cell_length_c 7.750(1)
_cell_angle_alpha 90.
_cell_angle_beta 90.
_cell_angle_gamma 120.
_cell_volume 855.8
_cell_formula_units_Z 4
_symmetry_space_group_name_H-M 'P 62'
_symmetry_Int_Tables_number 171
_refine_ls_R_factor_all 0.027
loop_
_symmetry_equiv_pos_site_id
_symmetry_equiv_pos_as_xyz
1 'x-y, x, z+1/3'
2 'y, -x+y, z+2/3'
3 '-x, -y, z'
4 '-x+y, -x, z+1/3'
5 '-y, x-y, z+2/3'
6 'x, y, z'
loop_
_atom_type_symbol
_atom_type_oxidation_number
Co0+ 0
Zn0+ 0
loop_
_atom_site_label
_atom_site_type_symbol
_atom_site_symmetry_multiplicity
_atom_site_Wyckoff_symbol
_atom_site_fract_x
_atom_site_fract_y
_atom_site_fract_z
_atom_site_B_iso_or_equiv
_atom_site_occupancy
_atom_site_attached_hydrogens
Co1 Co0+ 6 c 0.4245(2) 0.1402(2) 0.232851 0.0158(6) 1. 0
Co2 Co0+ 3 a 0 0 0.237(1) 0.0141(9) 0.347 0
Zn1 Zn0+ 3 a 0 0 0.237(1) 0.0141(9) 0.653 0
Zn2 Zn0+ 6 c 0.4242(1) 0.1556(2) -0.1074(4) 0.0097(7) 1. 0
Zn3 Zn0+ 6 c 0.4827(1) 0.3715(1) 0.0945(6) 0.0110(7) 1. 0
Zn4 Zn0+ 6 c 0.2277(1) 0.1605(2) 0.0816(6) 0.0149(6) 1. 0
Zn5 Zn0+ 6 c 0.1902(2) -0.0283(2) 0.3909(6) 0.0144(6) 1. 0
Zn6 Zn0+ 6 c 0.6612(1) 0.2782(1) 0.0694(6) 0.0122(6) 1. 0
Zn7 Zn0+ 6 c 0.4270(1) 0.1139(2) 0.5641(6) 0.0113(6) 1. 0
Zn8 Zn0+ 6 c 0.2429(1) -0.0695(1) 0.0698(7) 0.0149(6) 1. 0
Zn9 Zn0+ 6 c 0.6250(1) 0.1086(1) 0.3627(7) 0.0109(7) 1. 0
Zn10 Zn0+ 3 b 0.5 0 0.0662(7) 0.0132(8) 1. 0
#End of TTdata_150267-ICSD