
#(C) 2018 by FIZ Karlsruhe - Leibniz Institute for Information Infrastructure.  All rights reserved.
data_184755-ICSD
_database_code_ICSD 184755
_audit_creation_date 2012-08-01
_chemical_name_systematic 'Ytterbium platinum germanium (3/4/13)'
_chemical_formula_structural 'Yb3 Pt4 Ge13'
_chemical_formula_sum 'Ge13 Pt4 Yb3'
_exptl_crystal_density_diffrn 10.19
_cell_measurement_temperature 293.
_publ_section_title

;
Ca3 Pt4+x Ge13-y and Yb3 Pt4 Ge13 : new derivatives of the Pr3 Rh4 Sn13
structure type
;
loop_
_citation_id
_citation_journal_full
_citation_year
_citation_journal_volume
_citation_page_first
_citation_page_last
_citation_journal_id_ASTM
primary 'Dalton Transactions' 2012 41 6299 6309 DTARAF
loop_
_publ_author_name
'Gumeniuk, R.'
'Akselrud, L.'
'Kvashnina, K.O.'
'Schnelle, W.'
'Tsirlin, A.A.'
'Curfs, C.'
'Rosner, H.'
'Schoeneich, M.'
'Burkhardt, U.'
'Schwarz, U.'
'Grin, Yu.'
'Leithe Jasper, A.'
_cell_length_a 12.7479(1)
_cell_length_b 12.7479(1)
_cell_length_c 9.0009(1)
_cell_angle_alpha 90.
_cell_angle_beta 90.
_cell_angle_gamma 90.
_cell_volume 1462.73
_cell_formula_units_Z 4
_symmetry_space_group_name_H-M 'P 42 c m'
_symmetry_Int_Tables_number 101
_refine_ls_R_factor_all 0.061
loop_
_symmetry_equiv_pos_site_id
_symmetry_equiv_pos_as_xyz
1 'y, x, z'
2 '-y, -x, z'
3 '-x, y, z+1/2'
4 'x, -y, z+1/2'
5 'y, -x, z+1/2'
6 '-y, x, z+1/2'
7 '-x, -y, z'
8 'x, y, z'
loop_
_atom_type_symbol
_atom_type_oxidation_number
Yb0+ 0
Pt0+ 0
Ge0+ 0
loop_
_atom_site_label
_atom_site_type_symbol
_atom_site_symmetry_multiplicity
_atom_site_Wyckoff_symbol
_atom_site_fract_x
_atom_site_fract_y
_atom_site_fract_z
_atom_site_B_iso_or_equiv
_atom_site_occupancy
_atom_site_attached_hydrogens
Yb1 Yb0+ 2 a 0 0 0 0.58(5) 1. 0
Yb2 Yb0+ 2 b 0.5 0.5 0.0008(7) 0.72(5) 1. 0
Yb3 Yb0+ 8 e 0.1275(1) 0.3780(1) 0.2578(5) 0.75(2) 1. 0
Pt1 Pt0+ 8 e 0.2504(1) 0.50110(2) 0.00591(6) 0.40(2) 1. 0
Pt2 Pt0+ 8 e 0.0015(2) 0.2519(1) 0.0042(6) 0.44(1) 1. 0
Ge1 Ge0+ 4 d 0.1718(4) 0.1718(4) 0.1035(8) 0.4(1) 1. 0
Ge2 Ge0+ 4 d 0.2471(2) 0.2471(2) 0.7577(9) 0.63(3) 1. 0
Ge3 Ge0+ 4 d 0.1727(4) 0.1727(4) 0.4131(7) 0.8(1) 1. 0
Ge4 Ge0+ 4 d 0.3140(3) 0.3140(3) 0.0364(7) 1.1(1) 1. 0
Ge5 Ge0+ 4 d 0.3108(3) 0.3108(3) 0.5111(1) 0.7(1) 1. 0
Ge6 Ge0+ 8 e 0.1207(3) 0.6172(3) 0.3693(6) 0.91(5) 1. 0
Ge7 Ge0+ 8 e 0.3443(2) 0.4987(2) 0.2553(8) 0.72(4) 1. 0
Ge8 Ge0+ 8 e 0.0756(3) 0.5747(3) 0.0925(5) 0.68(5) 1. 0
Ge9 Ge0+ 8 e 0.0422(2) 0.1763(2) 0.7512(8) 1.04(5) 1. 0
#End of TTdata_184755-ICSD