
#(C) 2017 by FIZ Karlsruhe - Leibniz Institute for Information Infrastructure.  All rights reserved.
data_189806-ICSD
_database_code_ICSD 189806
_audit_creation_date 2014-02-01
_chemical_name_systematic Bismuth
_chemical_formula_structural Bi
_chemical_formula_sum Bi1
_exptl_crystal_density_diffrn 11.52
_cell_measurement_temperature 503.
_cell_measurement_pressure 3900000.
_publ_section_title

;
Structural study of the high-pressure-high-temperature phase of bismuth using
high energy synchrotron radiation
;
loop_
_citation_id
_citation_journal_full
_citation_year
_citation_journal_volume
_citation_page_first
_citation_page_last
_citation_journal_id_ASTM
primary 'Journal of Physics and Chemistry of Solids' 1997 58 247 255 JPCSAW
loop_
_publ_author_name
'J.H. Chen'
'H. Iwasaki'
'T. Kikegawa'
_cell_length_a 6.468(5)
_cell_length_b 6.578(5)
_cell_length_c 6.468(5)
_cell_angle_alpha 90.
_cell_angle_beta 118.88(6)
_cell_angle_gamma 90.
_cell_volume 240.97
_cell_formula_units_Z 8
_symmetry_space_group_name_H-M 'P 1 21/n 1'
_symmetry_Int_Tables_number 14
loop_
_symmetry_equiv_pos_site_id
_symmetry_equiv_pos_as_xyz
1 '-x+1/2, y+1/2, -z+1/2'
2 '-x, -y, -z'
3 'x+1/2, -y+1/2, z+1/2'
4 'x, y, z'
loop_
_atom_type_symbol
_atom_type_oxidation_number
Bi0+ 0
loop_
_atom_site_label
_atom_site_type_symbol
_atom_site_symmetry_multiplicity
_atom_site_Wyckoff_symbol
_atom_site_fract_x
_atom_site_fract_y
_atom_site_fract_z
_atom_site_B_iso_or_equiv
_atom_site_occupancy
_atom_site_attached_hydrogens
Bi1 Bi0+ 4 e 0.3123(7) 0.1775(6) 0.3210(7) . 1. 0
Bi2 Bi0+ 4 e -0.2279(6) 0.0039(5) 0.1924(6) . 1. 0
loop_
_atom_site_aniso_label
_atom_site_aniso_type_symbol
_atom_site_aniso_B_11
_atom_site_aniso_B_22
_atom_site_aniso_B_33
_atom_site_aniso_B_12
_atom_site_aniso_B_13
_atom_site_aniso_B_23
Bi1 Bi0+ 3.2(5) 4.3(7) 3.1(5) 0. 2.6(5) 0.
Bi2 Bi0+ 1.9(2) 2.0(2) 1.8(2) 0. 2.5(2) 0.
#End of TTdata_189806-ICSD