
#(C) 2017 by FIZ Karlsruhe - Leibniz Institute for Information Infrastructure.  All rights reserved.
data_57192-ICSD
_database_code_ICSD 57192
_audit_creation_date 2005-04-01
_audit_update_record 2012-02-01
_chemical_name_systematic 'Cesium - HP'
_chemical_formula_structural Cs
_chemical_formula_sum Cs1
_chemical_name_structure_type Cs(tP8)
_exptl_crystal_density_diffrn 7.41
_cell_measurement_pressure 18200000.
_publ_section_title 'High-pressure X-ray studies of Cs and Eu'
loop_
_citation_id
_citation_journal_full
_citation_year
_citation_journal_volume
_citation_page_first
_citation_page_last
_citation_journal_id_ASTM
primary 'Solid State Phys. Pressur: Recent Adv. Devices, JPN' 1985 1985 127 133
54NMAO
loop_
_publ_author_name
'Takemura, K.'
'Syassen, K.'
_cell_length_a 6.506(4)
_cell_length_b 6.506
_cell_length_c 5.627(5)
_cell_angle_alpha 90.
_cell_angle_beta 90.
_cell_angle_gamma 90.
_cell_volume 238.18
_cell_formula_units_Z 8
_symmetry_space_group_name_H-M 'P 42/m b c'
_symmetry_Int_Tables_number 135
loop_
_symmetry_equiv_pos_site_id
_symmetry_equiv_pos_as_xyz
1 '-y+1/2, -x+1/2, z+1/2'
2 '-x+1/2, y+1/2, z'
3 'y, -x, z+1/2'
4 '-x, -y, z'
5 '-y+1/2, -x+1/2, -z+1/2'
6 '-x+1/2, y+1/2, -z'
7 'y, -x, -z+1/2'
8 '-x, -y, -z'
9 'y+1/2, x+1/2, -z+1/2'
10 'x+1/2, -y+1/2, -z'
11 '-y, x, -z+1/2'
12 'x, y, -z'
13 'y+1/2, x+1/2, z+1/2'
14 'x+1/2, -y+1/2, z'
15 '-y, x, z+1/2'
16 'x, y, z'
loop_
_atom_type_symbol
_atom_type_oxidation_number
Cs0+ 0
loop_
_atom_site_label
_atom_site_type_symbol
_atom_site_symmetry_multiplicity
_atom_site_Wyckoff_symbol
_atom_site_fract_x
_atom_site_fract_y
_atom_site_fract_z
_atom_site_B_iso_or_equiv
_atom_site_occupancy
_atom_site_attached_hydrogens
Cs1 Cs0+ 8 h 0.073 0.25 0 . 1. 0
#End of TTdata_57192-ICSD