
#(C) 2017 by FIZ Karlsruhe - Leibniz Institute for Information Infrastructure.  All rights reserved.
data_75475-ICSD
_database_code_ICSD 75475
_audit_creation_date 1996-04-22
_audit_update_record 2007-08-01
_chemical_name_systematic 'Silicon oxide'
_chemical_formula_structural 'Si O2'
_chemical_formula_sum 'O2 Si1'
_chemical_name_structure_type Ferrierite(oP)-frame
_chemical_name_mineral 'Ferrierite, siliceous'
_exptl_crystal_density_diffrn 1.84
_cell_measurement_temperature 298.
_publ_section_title

;
A synchrotron X-ray diffraction, neutron diffraction, 29(Si) MAS-NMR, and
computational study of the siliceous form of zeolite ferrierite
;
loop_
_citation_id
_citation_journal_full
_citation_year
_citation_journal_volume
_citation_page_first
_citation_page_last
_citation_journal_id_ASTM
primary 'Journal of the American Chemical Society' 1994 116 11849 11855 JACSAT
loop_
_publ_author_name
'Morris, R.E.'
'Weigel, S.J.'
'Henson, N.J.'
'Bull, L.M.'
'Janicke, M.T.'
'Chmelka, B.F.'
'Cheetham, A.K.'
_cell_length_a 18.7202(1)
_cell_length_b 14.07025(8)
_cell_length_c 7.41971(4)
_cell_angle_alpha 90.
_cell_angle_beta 90.
_cell_angle_gamma 90.
_cell_volume 1954.34
_cell_formula_units_Z 36
_symmetry_space_group_name_H-M 'P m n n'
_symmetry_Int_Tables_number 58
_refine_ls_R_factor_all 0.1233
loop_
_symmetry_equiv_pos_site_id
_symmetry_equiv_pos_as_xyz
1 'x+1/2, -y+1/2, z+1/2'
2 'x+1/2, y+1/2, -z+1/2'
3 '-x, y, z'
4 '-x, -y, -z'
5 '-x+1/2, y+1/2, -z+1/2'
6 '-x+1/2, -y+1/2, z+1/2'
7 'x, -y, -z'
8 'x, y, z'
loop_
_atom_type_symbol
_atom_type_oxidation_number
Si4+ 4
O2- -2
loop_
_atom_site_label
_atom_site_type_symbol
_atom_site_symmetry_multiplicity
_atom_site_Wyckoff_symbol
_atom_site_fract_x
_atom_site_fract_y
_atom_site_fract_z
_atom_site_B_iso_or_equiv
_atom_site_occupancy
_atom_site_attached_hydrogens
Si1 Si4+ 4 e 0.15462(34) 0 0 0.012(4) 1. 0
Si2 Si4+ 8 h 0.27439(23) -.0012(7) 0.2905(6) 0.013(3) 1. 0
Si3 Si4+ 8 h 0.08373(23) 0.19990(33) 0.0037(13) 0.016(2) 1. 0
Si4 Si4+ 8 h 0.33150(31) 0.2029(6) 0.2255(8) 0.016(4) 1. 0
Si5 Si4+ 8 h 0.68200(33) 0.7950(6) 0.1894(8) 0.006(3) 1. 0
O1 O2- 4 f 0.2479(6) 0 0.5 0.025(6) 1. 0
O2 O2- 8 h 0.2027(4) 0.0099(11) 0.1788(10) 0.038(5) 1. 0
O3 O2- 8 h 0.1039(4) 0.0899(5) 0.0016(23) 0.029(4) 1. 0
O4 O2- 8 h 0.6560(4) 0.7804(5) -.0202(18) 0.024(4) 1. 0
O5 O2- 4 g 0 0.2090(9) 0.0377(22) 0.011(6) 1. 0
O6 O2- 8 h 0.2580(7) 0.2494(10) 0.2851(15) 0.031(5) 1. 0
O7 O2- 8 h 0.1248(5) 0.2403(8) 0.1829(15) 0.021(5) 1. 0
O8 O2- 8 h 0.8994(5) 0.7393(8) 0.1675(14) 0.037(6) 1. 0
O9 O2- 8 h 0.3291(6) 0.0879(10) 0.2462(16) 0.028(7) 1. 0
O10 O2- 8 h 0.6846(6) 0.904(1) 0.2477(16) 0.028(6) 1. 0
#End of TTdata_75475-ICSD