
#(C) 2017 by FIZ Karlsruhe - Leibniz Institute for Information Infrastructure, and the U.S. Secretary of
#Commerce on behalf of the United States.  All rights reserved.
data_629389-ICSD
_database_code_ICSD 629389
_audit_creation_date 2008-08-01
_audit_update_record 2017-08-01
_chemical_name_systematic 'Copper titanium (1/1)'
_chemical_formula_structural 'Cu Ti'
_chemical_formula_sum 'Cu1 Ti1'
_chemical_name_structure_type CuTi
_exptl_crystal_density_diffrn 6.48
_publ_section_title 'Phase diagram of the system titanium-copper'
loop_
_citation_id
_citation_journal_full
_citation_year
_citation_journal_volume
_citation_page_first
_citation_page_last
_citation_journal_id_ASTM
primary 'Soviet powder metallurgy and metal ceramics' 1966 5 494 502 SPMCAV
loop_
_publ_author_name
'Eremenko, V.N.'
'Buyanov, Yu.I.'
'Prima, S.B.'
_cell_length_a 3.107
_cell_length_b 3.107
_cell_length_c 5.919
_cell_angle_alpha 90.
_cell_angle_beta 90.
_cell_angle_gamma 90.
_cell_volume 57.14
_cell_formula_units_Z 2
_symmetry_space_group_name_H-M 'P 4/n m m S'
_symmetry_Int_Tables_number 129
loop_
_symmetry_equiv_pos_site_id
_symmetry_equiv_pos_as_xyz
1 '-y+1/2, -x+1/2, z'
2 'y+1/2, x+1/2, z'
3 '-y, -x, -z'
4 'y, x, -z'
5 'y+1/2, -x+1/2, z'
6 '-y+1/2, x+1/2, z'
7 'y, -x, -z'
8 '-y, x, -z'
9 'x+1/2, -y+1/2, -z'
10 '-x+1/2, y+1/2, -z'
11 'x, -y, z'
12 '-x, y, z'
13 '-x+1/2, -y+1/2, -z'
14 'x+1/2, y+1/2, -z'
15 '-x, -y, z'
16 'x, y, z'
loop_
_atom_type_symbol
_atom_type_oxidation_number
Cu0+ 0
Ti0+ 0
loop_
_atom_site_label
_atom_site_type_symbol
_atom_site_symmetry_multiplicity
_atom_site_Wyckoff_symbol
_atom_site_fract_x
_atom_site_fract_y
_atom_site_fract_z
_atom_site_B_iso_or_equiv
_atom_site_occupancy
_atom_site_attached_hydrogens
Cu1 Cu0+ 2 c 0 0.5 0.1 . 1 0
Ti1 Ti0+ 2 c 0 0.5 0.65 . 1 0
#End of TTdata_629389-ICSD