
#(C) 2017 by FIZ Karlsruhe - Leibniz Institute for Information Infrastructure.  All rights reserved.
data_415892-ICSD
_database_code_ICSD 415892
_audit_creation_date 2007-04-01
_chemical_name_systematic 'Cesium zinc (1.34/16)'
_chemical_formula_structural 'Cs1.34 Zn16'
_chemical_formula_sum 'Cs1.34 Zn16'
_exptl_crystal_density_diffrn 6.07
_publ_section_title

;
Polar binary Zn/Cd-rich intermetallics: Synthesis, crystal and electronic
structure of A (Zn/Cd)13 (A = alkali/alkaline earth) and Cs1.34 Zn16
;
loop_
_citation_id
_citation_journal_full
_citation_year
_citation_journal_volume
_citation_page_first
_citation_page_last
_citation_journal_id_ASTM
primary 'Journal of Alloys and Compounds' 2006 421 24 34 JALCEU
loop_
_publ_author_name
'Wendorff, M.'
'Roehr, C.'
_cell_length_a 17.596
_cell_length_b 7.208
_cell_length_c 2.642
_cell_angle_alpha 90.
_cell_angle_beta 90.
_cell_angle_gamma 90.
_cell_volume 335.09
_cell_formula_units_Z 1
_symmetry_space_group_name_H-M 'P c n 2'
_symmetry_Int_Tables_number 30
_refine_ls_R_factor_all 0.055
loop_
_symmetry_equiv_pos_site_id
_symmetry_equiv_pos_as_xyz
1 '-x+1/2, y, z+1/2'
2 'x+1/2, -y, z+1/2'
3 '-x, -y, z'
4 'x, y, z'
loop_
_atom_type_symbol
_atom_type_oxidation_number
Zn0+ 0
Cs0+ 0
loop_
_atom_site_label
_atom_site_type_symbol
_atom_site_symmetry_multiplicity
_atom_site_Wyckoff_symbol
_atom_site_fract_x
_atom_site_fract_y
_atom_site_fract_z
_atom_site_B_iso_or_equiv
_atom_site_occupancy
_atom_site_attached_hydrogens
Zn1 Zn0+ 4 c 0.18572(6) 0.7581(14) 0 0.0161(5) 1 0
Zn2 Zn0+ 4 c 0.0860(2) 0.5470(7) 0.498(6) 0.0205(10) 1 0
Zn3 Zn0+ 4 c 0.46623(6) 0.2499(11) 0.495(3) 0.0162(3) 1 0
Zn4 Zn0+ 4 c 0.4203(2) -0.0464(5) 0.003(6) 0.0121(8) 1 0
Cs1 Cs0+ 4 c 0.2514(5) 0.2584(18) -0.127(2) 0.032(3) 0.340(3) 0
loop_
_atom_site_aniso_label
_atom_site_aniso_type_symbol
_atom_site_aniso_U_11
_atom_site_aniso_U_22
_atom_site_aniso_U_33
_atom_site_aniso_U_12
_atom_site_aniso_U_13
_atom_site_aniso_U_23
Zn1 Zn0+ 0.0127(4) 0.0235(14) 0.0120(6) 0.0026(14) 0.0007(18) 0.000(8)
Zn2 Zn0+ 0.0146(14) 0.036(2) 0.011(2) -0.0070(10) 0.000(5) 0.000(5)
Zn3 Zn0+ 0.0219(5) 0.0148(5) 0.0120(6) 0.007(2) 0.0001(18) 0.000(7)
Zn4 Zn0+ 0.0178(12) 0.0053(11) 0.0131(19) -0.0022(9) -0.001(5) 0.001(4)
Cs1 Cs0+ 0.0142(17) 0.0165(19) 0.066(7) 0.001(4) -0.012(4) -0.004(5)
#End of TTdata_415892-ICSD