
#(C) 2017 by FIZ Karlsruhe - Leibniz Institute for Information Infrastructure.  All rights reserved.
data_14348-ICSD
_database_code_ICSD 14348
_audit_creation_date 1980-01-01
_audit_update_record 2012-08-01
_chemical_name_systematic 'Tungsten telluride (1/2)'
_chemical_formula_structural 'W Te2'
_chemical_formula_sum 'Te2 W1'
_chemical_name_structure_type WTe2
_exptl_crystal_density_diffrn 9.44
_publ_section_title
'The Crystal Structures of W Te2 and High-Temperature Mo Te2'
loop_
_citation_id
_citation_journal_full
_citation_year
_citation_journal_volume
_citation_page_first
_citation_page_last
_citation_journal_id_ASTM
primary 'Acta Crystallographica (1,1948-23,1967)' 1966 20 268 274 ACCRA9
loop_
_publ_author_name
'Brown, B.E.'
_cell_length_a 6.282
_cell_length_b 3.496
_cell_length_c 14.07
_cell_angle_alpha 90.
_cell_angle_beta 90.
_cell_angle_gamma 90.
_cell_volume 309.
_cell_formula_units_Z 4
_symmetry_space_group_name_H-M 'P n m 21'
_symmetry_Int_Tables_number 31
_refine_ls_R_factor_all 0.125
loop_
_symmetry_equiv_pos_site_id
_symmetry_equiv_pos_as_xyz
1 '-x, y+1/2, z+1/2'
2 '-x, -y+1/2, z+1/2'
3 'x, -y, z'
4 'x, y, z'
loop_
_atom_type_symbol
_atom_type_oxidation_number
W0+ 0
Te0+ 0
loop_
_atom_site_label
_atom_site_type_symbol
_atom_site_symmetry_multiplicity
_atom_site_Wyckoff_symbol
_atom_site_fract_x
_atom_site_fract_y
_atom_site_fract_z
_atom_site_B_iso_or_equiv
_atom_site_occupancy
_atom_site_attached_hydrogens
W1 W0+ 2 a 0.9005(5) 0.5 0 0.12 1. 0
W2 W0+ 2 a 0.5414(6) 0 0.9851(3) 0.14 1. 0
Te1 Te0+ 2 a 0.2941(10) 0.5 0.0965(5) 0.42 1. 0
Te2 Te0+ 2 a 0.8002(10) 0 0.1400(5) 0.55 1. 0
Te3 Te0+ 2 a 0.3559(11) 0 0.3449(5) 0.63 1. 0
Te4 Te0+ 2 a 0.8517(10) 0.5 0.3893(5) 0.45 1. 0
#End of TTdata_14348-ICSD