
#(C) 2018 by FIZ Karlsruhe - Leibniz Institute for Information Infrastructure.  All rights reserved.
data_81038-ICSD
_database_code_ICSD 81038
_audit_creation_date 1997-05-13
_chemical_name_systematic 'Dilead distrontium copper(I) iron(III) oxide'
_chemical_formula_structural 'Pb2 Sr2 Cu Fe O6'
_chemical_formula_sum 'Cu1 Fe1 O6 Pb2 Sr2'
_exptl_crystal_density_diffrn 7.26
_publ_section_title
'An ordered oxygen deficient K2 Ni F4 structure: Pb2 Sr2 Cu Fe O6'
loop_
_citation_id
_citation_journal_full
_citation_year
_citation_journal_volume
_citation_page_first
_citation_page_last
_citation_journal_id_ASTM
primary 'Journal of Materials Chemistry' 1995 5 1163 1170 JMACEP
loop_
_publ_author_name
'Rouillon, T.'
'Caldes, M.T.'
'Genouel, R.'
'Michel, C.'
'Hervieu, M.'
'Raveau, B.'
_cell_length_a 5.4606(3)
_cell_length_b 5.5228(3)
_cell_length_c 12.2112(6)
_cell_angle_alpha 90.
_cell_angle_beta 90.
_cell_angle_gamma 90.
_cell_volume 368.26
_cell_formula_units_Z 2
_symmetry_space_group_name_H-M 'P 2 a n'
_symmetry_Int_Tables_number 30
_refine_ls_R_factor_all 0.06
loop_
_symmetry_equiv_pos_site_id
_symmetry_equiv_pos_as_xyz
1 'x+1/2, -y+1/2, z'
2 'x+1/2, y+1/2, -z'
3 'x, -y, -z'
4 'x, y, z'
loop_
_atom_type_symbol
_atom_type_oxidation_number
Cu1+ 1
Pb2+ 2
Sr2+ 2
Fe3+ 3
O2- -2
loop_
_atom_site_label
_atom_site_type_symbol
_atom_site_symmetry_multiplicity
_atom_site_Wyckoff_symbol
_atom_site_fract_x
_atom_site_fract_y
_atom_site_fract_z
_atom_site_B_iso_or_equiv
_atom_site_occupancy
_atom_site_attached_hydrogens
Cu1 Cu1+ 2 a 0 0 0 1.4(3) 1. 0
Pb1 Pb2+ 4 c 0 0.506(1) 0.1445(2) 1.04(6) 1. 0
Sr1 Sr2+ 4 c 0 -.002(3) 0.3567(4) 0.1(1) 1. 0
Fe1 Fe3+ 2 b 0.5 0 0.5 0.4(3) 1. 0
O1 O2- 4 c 0.108(6) -.090(6) 0.145(3) 1.(3) 1. 0
O2 O2- 4 c 0 0.5 0.332(3) 5.2(9) 1. 0
O3 O2- 4 c 0.25 0.25 0.5 1.0(5) 1. 0
#End of TTdata_81038-ICSD