
#(C) 2017 by FIZ Karlsruhe - Leibniz Institute for Information Infrastructure.  All rights reserved.
data_82372-ICSD
_database_code_ICSD 82372
_audit_creation_date 1997-11-10
_audit_update_record 2006-04-01
_chemical_name_systematic 'Sulfur - gamma'
_chemical_formula_structural S8
_chemical_formula_sum S8
_exptl_crystal_density_diffrn 2.07
_publ_section_title

;
Reaktionen von Diorganogallium(indium)fluoriden. Die Kristallstruktur von Mes2
In F
;
loop_
_citation_id
_citation_journal_full
_citation_year
_citation_journal_volume
_citation_page_first
_citation_page_last
_citation_journal_id_ASTM
primary 'Zeitschrift fuer Anorganische und Allgemeine Chemie (1950) (DE)' 1995
621 597 606 ZAACAB
loop_
_publ_author_name
'Kraeuter, T.'
'Neumueller, B.'
_cell_length_a 8.163(1)
_cell_length_b 13.040(2)
_cell_length_c 8.386(1)
_cell_angle_alpha 90.
_cell_angle_beta 112.78(1)
_cell_angle_gamma 90.
_cell_volume 823.02
_cell_formula_units_Z 4
_symmetry_space_group_name_H-M 'P 1 2/n 1'
_symmetry_Int_Tables_number 13
_refine_ls_R_factor_all 0.049
loop_
_symmetry_equiv_pos_site_id
_symmetry_equiv_pos_as_xyz
1 'x+1/2, -y, z+1/2'
2 '-x+1/2, y, -z+1/2'
3 '-x, -y, -z'
4 'x, y, z'
loop_
_atom_type_symbol
_atom_type_oxidation_number
S0+ 0
loop_
_atom_site_label
_atom_site_type_symbol
_atom_site_symmetry_multiplicity
_atom_site_Wyckoff_symbol
_atom_site_fract_x
_atom_site_fract_y
_atom_site_fract_z
_atom_site_B_iso_or_equiv
_atom_site_occupancy
_atom_site_attached_hydrogens
S1 S0+ 4 g 0.3300(2) 0.1268(1) 0.6802(3) 0.0515(5) 1. 0
S2 S0+ 4 g 0.2190(2) 0.0298(2) 0.4741(2) 0.0487(5) 1. 0
S3 S0+ 4 g 0.3494(2) 0.8927(2) 0.5400(2) 0.0467(5) 1. 0
S4 S0+ 4 g 0.1979(2) 0.7963(1) 0.6177(2) 0.0389(5) 1. 0
S5 S0+ 4 g 0.6141(2) 0.3226(1) 0.6985(2) 0.0309(4) 1. 0
S6 S0+ 4 g 0.5271(2) 0.4207(1) 0.8399(2) 0.0352(4) 1. 0
S7 S0+ 4 g 0.4653(2) 0.5573(1) 0.7104(2) 0.0353(4) 1. 0
S8 S0+ 4 g 0.6747(3) 0.6551(1) 0.8240(2) 0.0437(5) 1. 0
#End of TTdata_82372-ICSD