
#(C) 2017 by FIZ Karlsruhe - Leibniz Institute for Information Infrastructure.  All rights reserved.
data_8263-ICSD
_database_code_ICSD 8263
_audit_creation_date 1980-01-01
_audit_update_record 2010-02-01
_chemical_name_systematic 'Silicon nitride - beta'
_chemical_formula_structural 'Si3 N4'
_chemical_formula_sum 'N4 Si3'
_chemical_name_structure_type Si3N4
_exptl_crystal_density_diffrn 3.21
_publ_section_title

;
The crystal structure of beta-Si3 N4, structural and stability considerations
between alpha- and beta-Si3 N4
;
loop_
_citation_id
_citation_journal_full
_citation_year
_citation_journal_volume
_citation_page_first
_citation_page_last
_citation_journal_id_ASTM
primary 'Acta Crystallographica B (24,1968-38,1982)' 1979 35 800 804 ACBCAR
loop_
_publ_author_name
'Gruen, R.'
_cell_length_a 7.595(1)
_cell_length_b 7.595(1)
_cell_length_c 2.9023(6)
_cell_angle_alpha 90.
_cell_angle_beta 90.
_cell_angle_gamma 120.
_cell_volume 144.99
_cell_formula_units_Z 2
_symmetry_space_group_name_H-M 'P 63'
_symmetry_Int_Tables_number 173
_refine_ls_R_factor_all 0.037
loop_
_symmetry_equiv_pos_site_id
_symmetry_equiv_pos_as_xyz
1 'x-y, x, z+1/2'
2 'y, -x+y, z+1/2'
3 '-x, -y, z+1/2'
4 '-x+y, -x, z'
5 '-y, x-y, z'
6 'x, y, z'
loop_
_atom_type_symbol
_atom_type_oxidation_number
Si4+ 4
N3- -3
loop_
_atom_site_label
_atom_site_type_symbol
_atom_site_symmetry_multiplicity
_atom_site_Wyckoff_symbol
_atom_site_fract_x
_atom_site_fract_y
_atom_site_fract_z
_atom_site_B_iso_or_equiv
_atom_site_occupancy
_atom_site_attached_hydrogens
Si1 Si4+ 6 c 0.7686(1) 0.1744(1) 0.25 . 1. 0
N1 N3- 6 c 0.0298(3) 0.3294(3) 0.2628(20) . 1. 0
N2 N3- 2 b 0.6667 0.3333 0.2392(55) . 1. 0
loop_
_atom_site_aniso_label
_atom_site_aniso_type_symbol
_atom_site_aniso_beta_11
_atom_site_aniso_beta_22
_atom_site_aniso_beta_33
_atom_site_aniso_beta_12
_atom_site_aniso_beta_13
_atom_site_aniso_beta_23
Si1 Si4+ 0.0023(1) 0.0023(1) 0.0088(8) 0.0012(1) -.0006(9) -.0012(9)
N1 N3- 0.0027(3) 0.0026(3) 0.0102(20) 0.0011(2) -.0036(24) -.0037(21)
N2 N3- 0.0029(3) 0.0029(3) 0.0126(40) 0.0015(2) 0 0
#End of TTdata_8263-ICSD